18
Lattice="30.0 0.0 0.0 0.0 30.0 0.0 0.0 0.0 30.0" Properties=species:S:1:pos:R:3:momenta:R:3:forces:R:3:magmoms:R:1 target_atoms="0 1 2 4 6 8 10 12 15 17" energy=-47.89521716 stress="0.0001504446681288136 -4.7188361768909916e-05 -2.0732639316265825e-05 -4.7188361768909916e-05 0.00014156707010663178 -6.772094823467293e-05 -2.0732639316265825e-05 -6.772094823467293e-05 7.098070744735711e-05" dipole="_JSON [[0.0, 0.0, 0.0]]" magmom=0.0 free_energy=-47.89521716 pbc="T T T"
Au      -1.14912593      -1.60938647       0.66136545      -1.64228866       0.25643962      -1.02601019       0.29125309       0.23024090       0.19371423       0.00000000
Au      -2.13510397       0.29113544      -1.21062659      -2.70194836      -0.59188424      -1.54484564       0.40791740      -0.04327526      -0.15766594       0.00000000
Au       1.34636917      -1.05309197      -0.43992291       4.13512255       0.93957924      -1.25956510       0.12368577      -0.21379460      -0.08369761       0.00000000
Au       0.28237092       0.65296556      -2.37242137       0.68338556      -2.25868094      -0.91903759      -0.20086499       0.00332814      -0.15436043       0.00000000
Au      -1.01680915      -1.91869893      -2.23201207      -1.74043247       3.52552995       1.09408828       0.51650539      -0.25659711       0.00545716       0.00000000
Au       2.97265974       0.19701427      -2.69821420       1.94024860       0.26598850       3.19036885       0.08471563      -0.45526921       0.39311618       0.00000000
Au       3.58347290      -2.38346665      -1.75146016      -1.77553303      -1.97036174      -4.21201135      -0.47445414       0.25060221       0.26337414       0.00000000
Au       2.66021569      -4.01716503       0.38720383       1.20176623      -0.36483564      -1.80440673       0.33183088       0.16132280      -1.00992265       0.00000000
Au       1.22595277      -2.49760945       1.92093391      -1.40560767       2.48261343       3.45044422      -0.49253268       0.78210633       0.26237973       0.00000000
Au      -3.71376337      -0.63155723       0.87257069       2.61076317      -1.72820001      -1.46954654      -0.85216190      -0.83946926      -0.30007775       0.00000000
Au      -2.07150102       1.14188368       1.55746143      -0.88881123      -1.73890943       1.13168186       1.33655465       0.57407930       0.34245445       0.00000000
Au       0.60264137       0.33586687       1.82701397      -0.01666681       1.33722155       1.10538688      -0.65033887      -0.32827532      -0.19887977       0.00000000
Au       1.15420485      -3.66882922      -1.92042060      -0.69139133      -0.36765292       2.08639025       0.18176472       0.40208239       0.27502850       0.00000000
H        4.37577618      -0.79996894      -2.43506449      -0.15434273       0.25636804      -0.06437290      -0.22337582      -0.27348042       0.02912142       0.00000000
H        2.25723350      -3.92818766       2.14737189       0.05675216      -0.24975639       0.09830354       0.01840906      -0.12864203       0.00750230       0.00000000
H        1.81637425       1.42188090      -3.01317296       0.00409873      -0.09596244      -0.04568280      -0.23502617      -0.06105877       0.07338644       0.00000000
H       -0.36677205      -3.55387370      -2.74292125       0.11355270       0.15903690       0.14224637      -0.21842490       0.23999619       0.05715391       0.00000000
H       -0.59864207       1.84732983       2.06606553       0.27133258       0.14346652       0.04656859       0.05454288      -0.04389628       0.00191570       0.00000000
18
Lattice="30.0 0.0 0.0 0.0 30.0 0.0 0.0 0.0 30.0" Properties=species:S:1:pos:R:3:momenta:R:3:forces:R:3:magmoms:R:1 target_atoms="0 1 2 15 4 12 6 8 17 10 13 16 14 11 7 3 9 5" energy=-47.88854478 stress="0.00014837858505343632 -3.891240777740851e-05 -2.3498014832597916e-05 -3.891240777740851e-05 0.00014304037833579652 -6.556489380524607e-05 -2.3498014832597916e-05 -6.556489380524607e-05 7.694169818708667e-05" dipole="_JSON [[0.0, 0.0, 0.0]]" magmom=0.0 free_energy=-47.88854478 pbc="T T T"
Au      -1.14993597      -1.60926262       0.66084976      -1.60576220       0.24018557      -1.04182203       0.31451638       0.22744011       0.19872604       0.00000000
Au      -2.13644825       0.29084130      -1.21139299      -2.68911428      -0.58723538      -1.52884147       0.40921857      -0.03031401      -0.15713305       0.00000000
Au       1.34843315      -1.05262882      -0.44055287       4.14176109       0.91840954      -1.26614312       0.11799568      -0.22269861      -0.06195199       0.00000000
Au       0.28270769       0.65182796      -2.37287124       0.66679101      -2.30382564      -0.88494592      -0.20419559       0.01047673      -0.16004533       0.00000000
Au      -1.01766571      -1.91693845      -2.23146171      -1.69599744       3.54098155       1.11591342       0.50814082      -0.21441921       0.02219857       0.00000000
Au       2.97362929       0.19712565      -2.69661551       1.94279209       0.18321585       3.22080111      -0.02196586      -0.38608832       0.36440926       0.00000000
Au       3.58257699      -2.38444543      -1.75355696      -1.81982415      -1.95765674      -4.19470247      -0.48876083       0.23912939       0.28155665       0.00000000
Au       2.66081820      -4.01734333       0.38629861       1.21569454      -0.35473781      -1.81740439       0.31568292       0.17408998      -0.91206067       0.00000000
Au       1.22524938      -2.49636510       1.92265991      -1.41104902       2.49949072       3.47704973      -0.41842331       0.68012372       0.24440715       0.00000000
Au      -3.71247550      -0.63242984       0.87183168       2.55349325      -1.77166953      -1.49412936      -0.85852375      -0.82985311      -0.28944645       0.00000000
Au      -2.07192072       1.14103336       1.55803355      -0.78375447      -1.66394225       1.16688155       1.50146947       0.65299491       0.39220860       0.00000000
Au       0.60261193       0.33653623       1.82755779      -0.10329499       1.35456998       1.07732579      -0.67508376      -0.28826081      -0.19447406       0.00000000
Au       1.15386581      -3.66899584      -1.91936522      -0.66167838      -0.29961638       2.15087415       0.26358208       0.40592583       0.31614150       0.00000000
H        4.35993161      -0.77453237      -2.44167167      -0.15784271       0.26178068      -0.07174930      -0.05032522      -0.38175777       0.05541719       0.00000000
H        2.26244528      -3.95164410       2.15386945       0.04455078      -0.21907817       0.02056175      -0.03745092      -0.02465966      -0.09119184       0.00000000
H        1.81775329       1.41488938      -3.01890034       0.01984574      -0.04273092      -0.07356253      -0.28756423      -0.01343532       0.06915936       0.00000000
H       -0.35729907      -3.54081980      -2.73118388       0.07481582       0.10078372       0.09043958      -0.29773526       0.18187355      -0.01588402       0.00000000
H       -0.57195803       1.85996693       2.07122157       0.26857331       0.10107520       0.05345354      -0.09057719      -0.18056741      -0.06203690       0.00000000
18
Lattice="30.0 0.0 0.0 0.0 30.0 0.0 0.0 0.0 30.0" Properties=species:S:1:pos:R:3:momenta:R:3:forces:R:3:magmoms:R:1 target_atoms="16 0 2 1 6 9 17 13 12 14 4 10 15 11 8 3 7 5" energy=-47.7776347 stress="0.0001567473440441305 -5.151239191019408e-05 1.1519347967257518e-05 -5.151239191019408e-05 0.0001229315653736445 -5.946424305731575e-05 1.1519347967257518e-05 -5.946424305731575e-05 1.822623025507576e-05" dipole="_JSON [[0.0, 0.0, 0.0]]" magmom=0.0 free_energy=-47.7776347 pbc="T T T"
Au      -1.15613814      -1.60809284       0.65688310      -1.50705635       0.35792379      -0.95377676       0.45534929       0.18907949       0.21136246       0.00000000
Au      -2.14653119       0.28834667      -1.21759685      -2.34599106      -0.67015767      -1.59426447       0.41527371       0.03251649      -0.14172133       0.00000000
Au       1.36517811      -1.04915949      -0.44573374       4.25582729       0.82539712      -1.33673266       0.07726036      -0.30886928       0.03662709       0.00000000
Au       0.28550441       0.64231502      -2.37668085       0.74402147      -2.46291962      -1.02871554      -0.43393695       0.03367067      -0.15696911       0.00000000
Au      -1.02372665      -1.90298709      -2.22712037      -1.33046943       3.40317838       1.03867376       0.49055913      -0.34358048      -0.03856726       0.00000000
Au       2.98128329       0.19747985      -2.68343989       1.83201044      -0.01157769       3.38759828      -0.74238539       0.20923276       0.17721094       0.00000000
Au       3.57454327      -2.39235044      -1.76993135      -2.21838433      -2.03056241      -3.98431789      -0.57672808       0.16679401       0.27417577       0.00000000
Au       2.66608354      -4.01867279       0.37823314       1.40251097      -0.25622315      -2.32878316       0.37786353       0.26296148      -1.55933466       0.00000000
Au       1.21968619      -2.48518459       1.93690337      -1.38618354       3.17395259       3.60241241      -0.39257009       0.61636428      -0.04661618       0.00000000
Au      -3.70390556      -0.64039941       0.86528787       1.72856128      -2.21257390      -1.78399642      -0.95255707      -0.80995969      -0.21661806       0.00000000
Au      -2.07287595       1.13591826       1.56382591       0.22392090      -0.98987353       1.70822229       1.53194109       0.62662678       0.38440406       0.00000000
Au       0.60111817       0.34150881       1.83153788      -0.60977156       1.01876526       0.87812880      -0.46457943      -0.53128698      -0.21600405       0.00000000
Au       1.15185455      -3.66930231      -1.90968937      -0.42134691       0.12439189       2.65519286      -0.14219805       0.49592836      -0.00903732       0.00000000
H        4.33238569      -0.71463069      -2.42417754       0.10007548      -0.04097412       0.08839772       0.32560971      -0.46904622       0.05986477       0.00000000
H        2.30062456      -4.07395623       1.97489399       0.09604984      -0.20878645      -0.32673771      -0.17190368      -0.07547356       0.88308968       0.00000000
H        1.65449955       1.45552262      -3.04843569      -0.39365805       0.09960524       0.02040279       0.37884711      -0.34402952       0.14031315       0.00000000
H       -0.46284296      -3.50441544      -2.74878825      -0.28513496       0.06567045      -0.05849351       0.15551038       0.13483145       0.22627041       0.00000000
H       -0.43645767       1.75455686       2.07192979       0.11501852      -0.18523617       0.01678922      -0.33135555       0.11423996      -0.00845037       0.00000000
18
Lattice="30.0 0.0 0.0 0.0 30.0 0.0 0.0 0.0 30.0" Properties=species:S:1:pos:R:3:momenta:R:3:forces:R:3:magmoms:R:1 target_atoms="17 16 9 0 1 10 6 4 11 2 14 13 15 7 8 12 3 5" energy=-47.64026279 stress="0.00017049626517680864 -8.84409859440136e-05 3.7302622709697205e-05 -8.84409859440136e-05 0.00010110756697917236 -5.7118359369334276e-05 3.7302622709697205e-05 -5.7118359369334276e-05 4.40194289970256e-06" dipole="_JSON [[0.0, 0.0, 0.0]]" magmom=0.0 free_energy=-47.64026279 pbc="T T T"
Au      -1.15964960      -1.60714146       0.65463234      -1.30775276       0.40178354      -0.85014261       0.51963914       0.17207588       0.21693865       0.00000000
Au      -2.15214184       0.28662585      -1.22156868      -2.15444131      -0.70662898      -1.58662737       0.40273191       0.09200605      -0.13093852       0.00000000
Au       1.37585689      -1.04733031      -0.44905668       4.31085774       0.63745826      -1.32397672       0.05090805      -0.34960624       0.10960555       0.00000000
Au       0.28697024       0.63622581      -2.37929353       0.38076870      -2.43397732      -1.04464893      -0.93927796      -0.25629328       0.09609709       0.00000000
Au      -1.02672974      -1.89475404      -2.22455619      -1.09389517       3.20364273       1.01559488       0.38333614      -0.26452948      -0.01722875       0.00000000
Au       2.98552522       0.19752105      -2.67483910       1.60701900       0.01442917       3.51780205      -0.29748861      -0.18252741       0.31253813       0.00000000
Au       3.56869581      -2.39725118      -1.77969990      -2.47199084      -1.88461803      -3.85645688      -0.48717813       0.23961517       0.21635580       0.00000000
Au       2.66983665      -4.01916510       0.37136205       1.61612506      -0.14012054      -3.19860235       0.26907111       0.33204448      -1.56098842       0.00000000
Au       1.21608853      -2.47698067       1.94586377      -1.48853950       3.38110580       3.58780040      -0.30748962       0.49834001      -0.19180733       0.00000000
Au      -3.70022320      -0.64636385       0.86066509       1.22695315      -2.57132153      -1.92306246      -0.97473234      -0.77938251      -0.17980837       0.00000000
Au      -2.07149913       1.13385714       1.56829240       0.86331709      -0.66573066       1.86836445       1.40711495       0.55279885       0.35594168       0.00000000
Au       0.59939874       0.34360142       1.83351176      -0.74926261       0.64139286       0.70054039      -0.26277032      -0.78349700      -0.25979685       0.00000000
Au       1.15062843      -3.66870935      -1.90308467      -0.58240595       0.34878996       2.63193822      -0.27077070       0.52792435      -0.06483212       0.00000000
H        4.39438126      -0.77713011      -2.39370905       0.11427359      -0.18984858       0.03159244      -0.33254084      -0.07516613      -0.05085652       0.00000000
H        2.30097745      -4.15328817       1.93702607      -0.11450214      -0.09386613       0.18987346      -0.19645705      -0.04960449       1.02182886       0.00000000
H        1.54146382       1.46640991      -3.01638121      -0.01155153      -0.03414460       0.08810045       1.07132616      -0.02268304      -0.14462884       0.00000000
H       -0.56814849      -3.46038663      -2.74269713      -0.11912839       0.09925427       0.08698393       0.39109914      -0.08205056       0.20424557       0.00000000
H       -0.41391834       1.70162653       2.09006242      -0.02584413      -0.00760023       0.06492664      -0.42652104       0.43053536       0.06733439       0.00000000
18
Lattice="30.0 0.0 0.0 0.0 30.0 0.0 0.0 0.0 30.0" Properties=species:S:1:pos:R:3:momenta:R:3:forces:R:3:magmoms:R:1 target_atoms="17 16 9 15 0 1 4 13 12 10 11 2 3 8 6 7 14 5" energy=-47.87262321 stress="0.00019670446810204762 -7.89189396215661e-05 -1.8496550015317762e-05 -7.89189396215661e-05 0.0001358518200642065 -6.54240479103114e-05 -1.8496550015317762e-05 -6.54240479103114e-05 0.0001321213199917391" dipole="_JSON [[0.0, 0.0, 0.0]]" magmom=0.0 free_energy=-47.87262321 pbc="T T T"
Au      -1.16403961      -1.60522309       0.65165568      -0.88946773       0.55605483      -0.63887805       0.60424002       0.18051076       0.22491895       0.00000000
Au      -2.16003712       0.28385685      -1.22801218      -1.80021926      -0.67590710      -1.64501702       0.41334465       0.26051055      -0.11790589       0.00000000
Au       1.39314709      -1.04528222      -0.45423150       4.34244151       0.41375876      -1.27168694      -0.07109412      -0.29025996       0.27119088       0.00000000
Au       0.28721680       0.62639263      -2.38325253      -0.15580525      -2.45488763      -0.97522498      -0.31562041       0.09430479      -0.07538301       0.00000000
Au      -1.03052041      -1.88228197      -2.22041685      -0.81552612       3.07460191       1.05309646       0.45782483      -0.28884761      -0.03297030       0.00000000
Au       2.99162586       0.19713329      -2.66038340       1.45972940      -0.22213022       3.72992044      -0.05354827      -0.44709531       0.30558512       0.00000000
Au       3.55810571      -2.40438053      -1.79470352      -2.83126341      -1.73885199      -3.62967775      -0.42936136       0.01770956       0.39890184       0.00000000
Au       2.67658907      -4.01936211       0.35739664       1.71187890      -0.01214791      -3.53038029      -0.25046342       0.25648733      -0.03399302       0.00000000
Au       1.20978844      -2.46294019       1.96011216      -1.63307024       3.56986979       3.58520344       0.03972595       0.00416368      -0.21654602       0.00000000
Au      -3.69691040      -0.65775685       0.85263185       0.43571166      -3.13467517      -2.10315228      -0.91217201      -0.68228506      -0.20952307       0.00000000
Au      -2.06592248       1.13213034       1.57625481       1.93551538      -0.20462776       2.12356995       1.30446025       0.50159512       0.33810169       0.00000000
Au       0.59591700       0.34501862       1.83576535      -1.04022972       0.14262622       0.43574367      -0.54267061      -0.46927269      -0.24132638       0.00000000
Au       1.14777724      -3.66649416      -1.89263920      -0.85116277       0.75523449       2.61626185      -0.31552360       0.42618294       0.09027035       0.00000000
H        4.35628971      -0.92882463      -2.38305034      -0.17501437      -0.16691979      -0.02326574      -0.07870813       0.15625775      -0.13774364       0.00000000
H        2.18194077      -4.17860896       2.14667270      -0.16997429       0.14733009       0.03752838      -0.04480233       0.59667573      -0.64760134       0.00000000
H        1.80516751       1.42316908      -2.96653917       0.55067445      -0.10240078       0.07151952      -0.00809829      -0.11926513       0.06596391       0.00000000
H       -0.54557149      -3.45885230      -2.66984608       0.18049675      -0.10969441       0.09388275       0.30794894      -0.16272752       0.07711185       0.00000000
H       -0.53919584       1.78839526       2.14790480      -0.25471489       0.16276666       0.07055659      -0.10548208      -0.03464492      -0.05905192       0.00000000
18
Lattice="30.0 0.0 0.0 0.0 30.0 0.0 0.0 0.0 30.0" Properties=species:S:1:pos:R:3:momenta:R:3:forces:R:3:magmoms:R:1 target_atoms="16 14 13 9 1 0 4 15 6 10 8 12 2 3 17 7 11 5" energy=-47.76852975 stress="0.00017423030418495044 -2.8613861546118998e-05 -4.301860925019934e-05 -2.8613861546118998e-05 0.00013551615794492563 -3.273641577281965e-05 -4.301860925019934e-05 -3.273641577281965e-05 7.851212429825016e-05" dipole="_JSON [[0.0, 0.0, 0.0]]" magmom=0.0 free_energy=-47.76852975 pbc="T T T"
Au      -1.16751462      -1.60085255       0.64843995      -0.22586636       0.79364571      -0.36669300       0.61125039       0.26120847       0.18823485       0.00000000
Au      -2.17005749       0.28017542      -1.23904140      -1.30515489      -0.45077119      -1.74044072       0.30898902       0.33380943      -0.04105357       0.00000000
Au       1.42078690      -1.04348101      -0.46151190       4.16694583       0.23132418      -1.00468975      -0.20476001      -0.12922184       0.38988030       0.00000000
Au       0.28590829       0.61107912      -2.38976657      -0.17230035      -2.22962447      -1.05318767       0.13184740       0.35822691      -0.18216753       0.00000000
Au      -1.03340054      -1.86393549      -2.21395569      -0.01962407       2.50184170       0.93042984       0.69575196      -0.69356259      -0.08367379       0.00000000
Au       3.00206913       0.19271177      -2.63469114       1.72280282      -0.99097083       4.13958584      -0.20590620       0.00017319      -0.07203312       0.00000000
Au       3.53794340      -2.41671224      -1.81603066      -3.27530640      -2.01713129      -2.99348013       0.00101587       0.20387709       0.28373902       0.00000000
Au       2.68697902      -4.01752652       0.33350006       1.54490129       0.65388177      -3.97500237      -0.05518095       0.49925540      -0.62023530       0.00000000
Au       1.19890044      -2.43914112       1.98218742      -1.86999239       4.03368820       3.17562844      -0.55034073       1.24242857      -0.34765923       0.00000000
Au      -3.69780244      -0.68100934       0.83827579      -0.67119939      -4.03027157      -2.31902587      -0.65714399      -0.45776492      -0.16009857       0.00000000
Au      -2.04900919       1.13264046       1.59083296       3.09036542       0.34101076       2.32044649       1.11912231       0.47214455       0.36407909       0.00000000
Au       0.58737024       0.34405673       1.83735741      -1.50024239      -0.43158843       0.06073966      -0.51637331      -0.49670188      -0.31051053       0.00000000
Au       1.14155143      -3.65989283      -1.87507120      -0.94763001       1.24468854       2.82126021       0.02939500       0.25920473       0.26629390       0.00000000
H        4.37473053      -0.99071783      -2.56775760       0.08732762       0.02713518      -0.20909617      -0.41358234       0.10777761       0.09198880       0.00000000
H        1.97523511      -3.87894628       2.02666350      -0.01108460      -0.06566015       0.08124453       0.51024956      -1.00341093       0.32249049       0.00000000
H        1.90700786       1.56535828      -2.95161195      -0.35819639       0.10500903       0.00875082      -0.09406228      -0.90671360       0.37258866       0.00000000
H       -0.39090867      -3.56123825      -2.56351813      -0.18271485       0.03730170      -0.02568819      -0.51558266       0.22679669      -0.21047568       0.00000000
H       -0.80037464       2.03806000       2.26342191      -0.07303087       0.24649118       0.14921805      -0.19468903      -0.27752689      -0.25138780       0.00000000
18
Lattice="30.0 0.0 0.0 0.0 30.0 0.0 0.0 0.0 30.0" Properties=species:S:1:pos:R:3:momenta:R:3:forces:R:3:magmoms:R:1 target_atoms="9 16 10 14 13 1 0 15 12 4 2 8 6 3 7 17 11 5" energy=-47.81209111 stress="0.00013923331991239104 -9.050654473262429e-05 -1.6212288746936134e-05 -9.050654473262429e-05 0.00013956795218266613 -1.8757981866564508e-05 -1.6212288746936134e-05 -1.8757981866564508e-05 0.00012539876527450575" dipole="_JSON [[0.0, 0.0, 0.0]]" magmom=0.0 free_energy=-47.81209111 pbc="T T T"
Au      -1.16756561      -1.59735455       0.64719912       0.22002825       0.94701779      -0.25528663       0.60752167       0.24422087       0.21472357       0.00000000
Au      -2.17471299       0.27885783      -1.24600386      -1.02886038      -0.20951852      -1.74370117       0.26378797       0.36059981      -0.01466024       0.00000000
Au       1.43719662      -1.04273750      -0.46499552       4.04511530       0.12757270      -0.73023464      -0.20814209      -0.20090583       0.50025266       0.00000000
Au       0.28523966       0.60271448      -2.39415137      -0.35324948      -2.03604433      -1.08524839      -1.14092433      -0.24893564       0.26916583       0.00000000
Au      -1.03245424      -1.85498054      -2.21043116       0.45008164       1.98635926       0.82736328       0.47174982      -0.66546386      -0.09207429       0.00000000
Au       3.00854919       0.18866054      -2.61828294       1.51646568      -1.09925755       4.10383207      -0.40181516      -0.30711563      -0.05465641       0.00000000
Au       3.52490856      -2.42439015      -1.82766285      -3.26766231      -1.84400499      -2.83677353      -0.00759025       0.14356983       0.24238317       0.00000000
Au       2.69285301      -4.01395922       0.31711101       1.35039899       1.15827795      -4.12799658      -0.36486758       0.49759823       0.22933308       0.00000000
Au       1.19094813      -2.42202920       1.99419734      -1.98662513       4.32495310       2.83562846       0.26644699      -0.24401935      -0.41655047       0.00000000
Au      -3.70146556      -0.69776286       0.82885956      -1.13484099      -4.34366037      -2.39128103      -0.49445078      -0.30102547      -0.07183647       0.00000000
Au      -2.03518527       1.13484115       1.60061515       3.71253489       0.71528812       2.53714103       0.71224406       0.19982484       0.20571325       0.00000000
Au       0.58083546       0.34161060       1.83718850      -1.76584742      -0.77751412      -0.13267918      -0.40568748      -0.59479699      -0.29613561       0.00000000
Au       1.13744659      -3.65435100      -1.86361519      -1.20160093       1.54601152       2.89813761      -0.73238697       0.34427889      -0.09855003       0.00000000
H        4.30465632      -0.95005867      -2.67821159      -0.21523997       0.06376636      -0.08181478      -0.03902030      -0.02283773       0.17716633       0.00000000
H        2.05420954      -4.08320245       2.13863209       0.12185788      -0.24700533       0.08417314      -0.02492914       0.56394598      -0.52296767       0.00000000
H        1.63370591       1.39429838      -2.85203093      -0.17541192      -0.35050335       0.16334660       1.11908362       0.38354689      -0.22244801       0.00000000
H       -0.59124272      -3.48139994      -2.58787928      -0.20538208       0.13231913       0.01220423       0.40419193      -0.05338115       0.09839024       0.00000000
H       -0.89624846       2.09607414       2.28384909      -0.08176202      -0.09405739      -0.07681051      -0.02521199      -0.09910366      -0.14724892       0.00000000
18
Lattice="30.0 0.0 0.0 0.0 30.0 0.0 0.0 0.0 30.0" Properties=species:S:1:pos:R:3:momenta:R:3:forces:R:3:magmoms:R:1 target_atoms="15 13 14 16 17 3 4 8 7 5 1 6 0 12 11 9 10 2" energy=-47.6931908 stress="2.2022896565786666e-05 -1.1359253258178613e-05 -5.27322074877202e-05 -1.1359253258178613e-05 -3.187270325696167e-05 2.0099051241879163e-05 -5.27322074877202e-05 2.0099051241879163e-05 4.531612124245522e-05" dipole="_JSON [[0.0, 0.0, 0.0]]" magmom=0.0 free_energy=-47.6931908 pbc="T T T"
Au      -1.10145114      -1.54578635       0.64742507       3.04407708       1.73959189      -0.18010301      -0.26659010      -0.03555919      -0.18536117       0.00000000
Au      -2.19365301       0.31307019      -1.28883857      -0.39808690       1.78693022      -0.38349842       0.14038122      -0.07830152       0.24356298       0.00000000
Au       1.53933302      -1.06251840      -0.44297251       1.84110156      -1.26254957       1.69043032      -0.39654729       0.10548608       0.49430171       0.00000000
Au       0.23690978       0.55034929      -2.41752054      -1.74850655      -0.70681083      -0.39551217       0.17355643       0.46028167       0.09822218       0.00000000
Au      -0.97212454      -1.85704578      -2.20047365       2.08351823      -1.52398902      -0.30171233      -0.41562477       0.14957221       0.01829819       0.00000000
Au       3.04178836       0.13330019      -2.48876505       0.26407553      -1.93669309       3.27332721      -0.58199481       0.37269120      -0.69222966       0.00000000
Au       3.44632783      -2.47802741      -1.90069167      -0.64252002      -1.21375938      -1.87054749       0.67078886       0.31965697      -0.14431751       0.00000000
Au       2.70116786      -3.90889443       0.21371278      -0.89350087       4.63926966      -0.79534487      -0.19593264       0.13904866       1.38047955       0.00000000
Au       1.16758826      -2.31147049       2.01670810       1.35139154       1.07050748      -1.66947072       0.83670571      -1.03885613      -0.34480087       0.00000000
Au      -3.74577285      -0.83523877       0.75140804      -0.20973144      -2.77014142      -2.02461179       0.59474698       0.53846090       0.13615918       0.00000000
Au      -1.91956222       1.15091993       1.66174253       1.14009792      -0.08892289       0.46761109      -1.01227301      -0.34661052      -0.46639574       0.00000000
Au       0.51535016       0.27126514       1.81920450      -1.03932189      -2.47111426      -0.41044450       0.61418855       0.19360823       0.11846349       0.00000000
Au       1.02759343      -3.58119115      -1.77016850      -5.13352231       2.20080262       2.32817237      -0.57417542      -0.24651678      -0.51846115       0.00000000
H        4.39537157      -0.87716022      -2.62023774       0.03356970       0.27169676      -0.00390082      -0.18372862      -0.23204517       0.28939738       0.00000000
H        2.27323250      -3.96492552       2.05070026      -0.13348855       0.15990613       0.10870467      -0.19014298       0.50181911      -0.57098891       0.00000000
H        1.68477601       1.34980834      -2.90564435       0.27230706       0.19049340      -0.03922419       0.45299381      -0.23993006       0.20185190       0.00000000
H       -0.62759583      -3.45418307      -2.54430179       0.08458579      -0.23396108       0.06832363       0.23493422      -0.58132407      -0.09732580       0.00000000
H       -0.61522361       1.99791331       2.17871084       0.08395412       0.14874337       0.13780103       0.09871386       0.01851841       0.03914422       0.00000000
18
Lattice="30.0 0.0 0.0 0.0 30.0 0.0 0.0 0.0 30.0" Properties=species:S:1:pos:R:3:momenta:R:3:forces:R:3:magmoms:R:1 target_atoms="17 9 14 1 13 8 10 11 7 3 6 15 0 5 16 2 12 4" energy=-47.51510648 stress="-1.317336661014396e-05 6.8868817936505e-05 -4.4188873486775075e-05 6.8868817936505e-05 -9.194754066904433e-05 3.349983972004293e-05 -4.4188873486775075e-05 3.349983972004293e-05 -7.351862364661464e-05" dipole="_JSON [[0.0, 0.0, 0.0]]" magmom=0.0 free_energy=-47.51510648 pbc="T T T"
Au      -1.05457509      -1.51382038       0.63036265       1.50047955       1.26148322      -1.59748169      -0.66621776      -0.31559417      -0.37583389       0.00000000
Au      -2.19711113       0.34578964      -1.28400734       0.10302659       1.35578080       0.72887222       0.17093279      -0.34309021       0.09018284       0.00000000
Au       1.56186773      -1.08299234      -0.39535872       0.61658623      -0.66895370       2.85602244      -0.20670796       0.34368007      -0.12906436       0.00000000