18
Lattice="30.0 0.0 0.0 0.0 30.0 0.0 0.0 0.0 30.0" Properties=species:S:1:pos:R:3:momenta:R:3:forces:R:3:magmoms:R:1 target_atoms="0 1 2 4 6 8 10 12 15 17" energy=-46.42401012 stress="0.00025813654663959005 1.35439374899659e-05 4.001149384391268e-05 1.35439374899659e-05 4.531394295577029e-05 -1.113129462037398e-05 4.001149384391268e-05 -1.113129462037398e-05 0.0001391680087608978" dipole="_JSON [[0.0, 0.0, 0.0]]" magmom=0.0 free_energy=-46.42401012 pbc="T T T"
Au       0.81208710      -1.00974877      -0.07789769      -3.05776007      -1.56539097       0.72023671      -0.74214135      -0.56165114       0.47683191       0.00000000
Au      -1.76055662       0.13141966      -0.98539208       1.68246668      -3.99719819       1.32284219       0.28768086       0.85865814      -0.41567057       0.00000000
Au       2.56133312       1.03427667       0.13619961       0.81454282      -2.02770380       0.98231852       0.70998159       1.73090147      -0.05028313       0.00000000
Au       0.68153632       1.21139818      -1.95293202      -0.87450814      -1.42946860      -2.03192038      -0.75183766       0.44493568      -0.85954670       0.00000000
Au      -0.40618556      -1.46263099      -2.90996483       0.68815563       0.43236282      -4.08512155       0.30577978       0.34792134       0.02875167       0.00000000
Au       2.40467187      -1.12139236      -2.25728633       0.90743196       1.14300379      -0.99317413       0.46528289      -0.05341403      -1.45756395       0.00000000
Au       2.24666903      -3.76838024       0.69213129      -1.22219400       5.52055534       3.56524205      -0.99134730      -0.08088407      -0.30448741       0.00000000
Au      -0.47979130      -3.34249549       1.28337272       0.76678107       0.23670578       0.70377149       0.48594814       0.07907179      -0.57431511       0.00000000
Au       3.47575736      -1.48095784       0.33200016       5.62403517      -4.53020010      -1.36099139       1.61020256      -0.43799318       0.07941410       0.00000000
Au      -2.00112838      -2.49267924      -0.96943607       1.39579894       2.02137844      -1.90410690       0.21401246      -0.63998898       0.27432945       0.00000000
Au      -1.77426252      -0.99198175       1.43809321      -0.16400755       2.14339844       3.82551164       0.23396236       0.02070426       0.30769322       0.00000000
Au      -0.16583448       1.48209354       1.01271564      -4.40430936      -0.97792657       1.72576852       0.59293226      -1.37308467      -0.87436107       0.00000000
Au       0.50362679      -3.62220030      -1.60579067      -2.19194499       2.97132936      -1.94833479       0.22051437       0.18898392       0.75263657       0.00000000
H        5.03503924      -2.08508303       0.52746537       0.18349333      -0.07965793      -0.19315525      -1.20052794       0.43139785      -0.04529435       0.00000000
H        3.58022451       2.40514971       0.25830567       0.02341750       0.06661927      -0.09808388      -0.80942466      -1.20286905      -0.03188003       0.00000000
H        0.03652394       2.27040020      -3.09515691      -0.06224019      -0.16627114      -0.09501674       0.52687426      -0.79650800       0.93487741       0.00000000
H        3.18597634      -1.26930417      -3.74476130       0.04924867      -0.05830907      -0.12017035      -0.57765490       0.07941092       1.11913555       0.00000000
H       -0.81222932       2.63308558       1.74864901      -0.15840747       0.29677313      -0.01561575      -0.58023773       0.96440776       0.63973246       0.00000000
18
Lattice="30.0 0.0 0.0 0.0 30.0 0.0 0.0 0.0 30.0" Properties=species:S:1:pos:R:3:momenta:R:3:forces:R:3:magmoms:R:1 target_atoms="12 1 0 4 10 6 2 8 15 17 7 16 13 5 14 9 3 11" energy=-46.44883199 stress="0.00027264887299496414 -3.0387286500092714e-06 2.8900640165925957e-05 -3.0387286500092714e-06 6.413965143785975e-05 8.706362219313194e-06 2.8900640165925957e-05 8.706362219313194e-06 0.00015173030042007216" dipole="_JSON [[0.0, 0.0, 0.0]]" magmom=0.0 free_energy=-46.44883199 pbc="T T T"
Au       0.81055669      -1.01054536      -0.07753033      -3.07810176      -1.62920883       0.75288560      -0.71359384      -0.55146955       0.49206717       0.00000000
Au      -1.75970789       0.12944528      -0.98473120       1.72071124      -3.92117370       1.32757651       0.28966087       0.87859298      -0.41524316       0.00000000
Au       2.56176008       1.03330724       0.13668896       0.89614669      -1.86208640       0.97879569       0.68035017       1.70744918      -0.06768811       0.00000000
Au       0.68108341       1.21070141      -1.95396645      -0.93932830      -1.37144272      -2.11119570      -0.72876603       0.38313118      -0.80959174       0.00000000
Au      -0.40582974      -1.46240720      -2.91200274       0.73879634       0.46469395      -4.08758926       0.30832639       0.35315847       0.02873632       0.00000000
Au       2.40513674      -1.12082964      -2.25781033       0.95774189       1.11336917      -1.11189331       0.48059346      -0.07004664      -1.48589218       0.00000000
Au       2.24603464      -3.76563694       0.69390216      -1.32192258       5.48002738       3.53664611      -1.00075005      -0.09512079      -0.30353628       0.00000000
Au      -0.47940027      -3.34238141       1.28370975       0.80088585       0.22103929       0.64784711       0.48146523       0.08165756      -0.57383349       0.00000000
Au       3.47860045      -1.48322119       0.33131929       5.78646279      -4.54776666      -1.36966510       1.67552829      -0.44146250       0.04937057       0.00000000
Au      -2.00043434      -2.49168332      -0.97038228       1.38746823       1.97241170      -1.89037875       0.20779796      -0.65732058       0.27849093       0.00000000
Au      -1.77434141      -0.99090212       1.44000550      -0.15271871       2.18617721       3.84378847       0.23459455       0.01548854       0.30566475       0.00000000
Au      -0.16802053       1.48156335       1.01354848      -4.37189780      -1.12896985       1.62683903       0.29582405      -0.85189908      -0.54135765       0.00000000
Au       0.50254447      -3.62070324      -1.60674133      -2.14835655       3.03219869      -1.86408646       0.22527676       0.18711530       0.75731054       0.00000000
H        5.04845173      -2.09028707       0.50767634       0.08286852      -0.02489167      -0.21277426      -1.28183152       0.46169338      -0.03065078       0.00000000
H        3.57671882       2.40447217       0.24796634      -0.09365874      -0.07836024      -0.11341546      -0.78983538      -1.18544780      -0.01884431       0.00000000
H        0.03319201       2.25005210      -3.09993564      -0.00813500      -0.24400817      -0.00889664       0.50197649      -0.72721104       0.88562000       0.00000000
H        3.18648648      -1.27461005      -3.74999143      -0.04068422      -0.04992577       0.01673571      -0.59712714       0.09216408       1.16082791       0.00000000
H       -0.83095946       2.66739720       1.75038053      -0.21627788       0.38791661       0.03878072      -0.26949025       0.41952731       0.28854951       0.00000000
18
Lattice="30.0 0.0 0.0 0.0 30.0 0.0 0.0 0.0 30.0" Properties=species:S:1:pos:R:3:momenta:R:3:forces:R:3:magmoms:R:1 target_atoms="9 12 1 4 15 0 6 13 16 17 14 5 8 3 2 11" energy=-46.59055378 stress="0.0002559935806548002 -3.943097732162339e-05 7.6014715493219615e-06 -3.943097732162339e-05 7.140432491323993e-05 5.651089825214856e-05 7.6014715493219615e-06 5.651089825214856e-05 0.00013983470179968814" dipole="_JSON [[0.0, 0.0, 0.0]]" magmom=0.0 free_energy=-46.59055378 pbc="T T T"
Au       0.80743633      -1.01223875      -0.07672473      -3.17014201      -1.76638718       0.86181998      -0.67208077      -0.53415166       0.53119353       0.00000000
Au      -1.75798502       0.12562336      -0.98342162       1.73198518      -3.74198039       1.29734755       0.28897071       0.91761719      -0.41542366       0.00000000
Au       2.56271822       1.03159230       0.13764248       1.00260950      -1.60848681       0.92794292       0.35081967       1.30603966      -0.12014582       0.00000000
Au       0.68007493       1.20936949      -1.95614597      -1.06839316      -1.32247451      -2.23433337      -0.54688774       0.04506427      -0.45497061       0.00000000
Au      -0.40504303      -1.46191300      -2.91606637       0.83944077       0.52795857      -4.06036283       0.30800346       0.36105599       0.03367355       0.00000000
Au       2.40614548      -1.11974037      -2.25904909       1.05340807       1.07291288      -1.35138704       0.33532765      -0.07278706      -1.21494307       0.00000000
Au       2.24464212      -3.76018080       0.69738594      -1.47029905       5.45916440       3.44910465      -1.01941144      -0.11979492      -0.29942613       0.00000000
Au      -0.47857679      -3.34217092       1.28429783       0.84961379       0.20207258       0.53144356       0.46748153       0.08225703      -0.57129354       0.00000000
Au       3.48453893      -1.48779898       0.32995346       6.10561021      -4.62212484      -1.37495430       1.50165144      -0.34506320      -0.03157648       0.00000000
Au      -1.99903232      -2.48976796      -0.97223610       1.42336597       1.86797162      -1.82618887       0.19482784      -0.69216959       0.28563960       0.00000000
Au      -1.77448200      -0.98869651       1.44385758      -0.12964396       2.23605483       3.88105478       0.23202849       0.00531016       0.30333346       0.00000000
Au      -0.17237075       1.48036365       1.01512226      -4.37464237      -1.23266093       1.55775108      -0.28817921       0.16212334       0.05785357       0.00000000
Au       0.50042660      -3.61765180      -1.60851652      -2.09818997       3.08592268      -1.69534610       0.22989944       0.18323408       0.76679534       0.00000000
H        5.04224386      -2.08626582       0.46589992      -0.13385096       0.05957033      -0.21126960      -1.11879875       0.40365027       0.03183316       0.00000000
H        3.54153583       2.36642462       0.22408994      -0.24682903      -0.28366132      -0.12793330      -0.46264516      -0.77094571       0.03447314       0.00000000
H        0.04219730       2.19309994      -3.08723392       0.08700071      -0.31741035       0.11459014       0.30387993      -0.35979921       0.52018811       0.00000000
H        3.16734892      -1.28198840      -3.72660376      -0.14649171      -0.02712473       0.20449162      -0.44584071       0.08110897       0.89219185       0.00000000
H       -0.87916738       2.74956557       1.76242006      -0.25455199       0.41068319       0.05622913       0.34095362      -0.65274962      -0.34939600       0.00000000
18
Lattice="30.0 0.0 0.0 0.0 30.0 0.0 0.0 0.0 30.0" Properties=species:S:1:pos:R:3:momenta:R:3:forces:R:3:magmoms:R:1 target_atoms="9 17 7 1 14 0 10 12 16 13 4 15 11 6 3 5 8 2" energy=-46.39186135 stress="4.8689444713684844e-05 -6.82068372371047e-05 2.6754166453007327e-06 -6.82068372371047e-05 -8.020829809377281e-05 0.00013589991713353056 2.6754166453007327e-06 0.00013589991713353056 1.5240448326981355e-05" dipole="_JSON [[0.0, 0.0, 0.0]]" magmom=0.0 free_energy=-46.39186135 pbc="T T T"
Au       0.77285071      -1.03404537      -0.06228760      -3.67303466      -2.57489493       2.05314636      -0.12196493      -0.32181063       0.54856049       0.00000000
Au      -1.73875457       0.09676001      -0.97495472       2.10481348      -2.06325869       0.39924075       0.20834806       1.15543787      -0.40754765       0.00000000
Au       2.56973054       1.01743572       0.14493285       0.63190653      -0.90993679       0.43790645      -1.29366131      -0.99259318      -0.31675382       0.00000000
Au       0.66733852       1.19219306      -1.97723431      -1.59188237      -2.00581352      -2.24788060       0.54015958      -1.34998897       1.33840693       0.00000000
Au      -0.39306000      -1.45300694      -2.95602380       1.57981466       1.24926254      -3.95691291       0.25123697       0.39938931       0.07959710       0.00000000
Au       2.41422349      -1.10911617      -2.27374767       0.64681101       0.96826739      -1.91959100      -0.56189230       0.05684133       0.63802021       0.00000000
Au       2.22086227      -3.70784415       0.72901933      -3.26006880       4.95840737       2.88012231      -1.06727198      -0.32903984      -0.28247222       0.00000000
Au      -0.46618580      -3.33896344       1.28343763       1.55937089       0.50315216      -0.68651110       0.27317919       0.13159303      -0.51112774       0.00000000
Au       3.54923704      -1.53186749       0.31487198       7.04706921      -4.20116860      -1.70150730      -0.51023807       0.72240781      -0.29953961       0.00000000
Au      -1.98368009      -2.47714795      -0.98690431       1.59843895       0.64451214      -1.07562003       0.07458413      -0.92868006       0.33896505       0.00000000
Au      -1.77464835      -0.96674063       1.48478039       0.09911273       2.10493627       4.26730838       0.21643797      -0.12624892       0.20369603       0.00000000
Au      -0.21912889       1.46727601       1.02920367      -4.77398642      -1.58364024       1.10704348      -0.45530580       0.87636856       0.27944676       0.00000000
Au       0.48179187      -3.58585290      -1.61889021      -1.60345640       3.26200782      -0.40043518       0.30603586       0.05159001       0.77901448       0.00000000
H        4.95652571      -2.12966122       0.47452058      -0.20587166      -0.00441922       0.20632822       0.74740199      -0.29253190       0.18595632       0.00000000
H        3.45747918       2.23151185       0.06374737      -0.07237239      -0.18485389      -0.00246425       1.10778727       1.31005054       0.07567412       0.00000000
H       -0.03978765       2.03042934      -2.98728651       0.02690956      -0.01494496       0.25042241      -0.75721651       1.15284540      -1.26810222       0.00000000
H        2.98498735      -1.55342671      -3.63087586      -0.20214015      -0.15385031       0.30200002       0.43309525      -0.11077371      -0.78948339       0.00000000
H       -0.85227493       2.91449749       1.69812972       0.08856583       0.00623545       0.08740400       0.60928464      -1.40485665      -0.59231084       0.00000000
18
Lattice="30.0 0.0 0.0 0.0 30.0 0.0 0.0 0.0 30.0" Properties=species:S:1:pos:R:3:momenta:R:3:forces:R:3:magmoms:R:1 target_atoms="9 0 17 14 7 13 15 10 1 12 16 4 6 11 2 8 3 5" energy=-46.44755126 stress="4.20977307522574e-06 -4.595571989013011e-05 1.337582868316936e-05 -4.595571989013011e-05 -0.00012011772453894992 7.763978601678021e-05 1.337582868316936e-05 7.763978601678021e-05 4.1794455823830734e-05" dipole="_JSON [[0.0, 0.0, 0.0]]" magmom=0.0 free_energy=-46.44755126 pbc="T T T"
Au       0.73643193      -1.06161001      -0.03887672      -3.96253810      -3.22184020       2.77807269       0.32443648       0.03852350       0.16454197       0.00000000
Au      -1.71651742       0.08571877      -0.97521383       2.57196391      -0.25679998      -0.39266444       0.07923624       1.12804119      -0.34987256       0.00000000
Au       2.57255976       1.01001335       0.14653112      -0.11121077      -0.64437689      -0.02405906      -1.30808120      -1.23507432      -0.46563576       0.00000000
Au       0.65104285       1.16889959      -1.99602201      -1.76698370      -2.89437960      -1.75480275       0.37357753      -1.18326984       1.06157033       0.00000000
Au      -0.37510436      -1.43781715      -2.99318625       2.24357051       1.90751377      -3.89233284       0.10224912       0.33341716       0.11726583       0.00000000
Au       2.41696746      -1.10047707      -2.29003500       0.03642564       0.81033038      -1.64920013      -0.74586618       0.45564937       1.46039596       0.00000000
Au       2.18118740      -3.66454227       0.75430425      -5.03781110       4.13156956       2.46915033      -0.79755538      -0.37082744      -0.31725657       0.00000000
Au      -0.44970659      -3.33179113       1.27248404       1.83381942       1.03260981      -1.56919387      -0.04566062       0.17227970      -0.38043317       0.00000000
Au       3.61618923      -1.56751345       0.29701260       7.05443811      -3.29050707      -2.13737071      -0.86178986       1.05069317      -0.35913441       0.00000000
Au      -1.96854512      -2.47724128      -0.99358688       1.55952909      -0.62401187      -0.35622177      -0.02058284      -0.91266459       0.35456996       0.00000000
Au      -1.77145592      -0.94796641       1.52602066       0.57515920       1.86103636       4.40082386       0.15822196      -0.23009639       0.03681548       0.00000000
Au      -0.26341575       1.44952490       1.03743203      -4.61226975      -1.96214733       0.90520670       0.07859010       0.18448194       0.27850760       0.00000000
Au       0.47021841      -3.55462274      -1.61621259      -0.78752961       3.31930155       0.93695283       0.37168824      -0.08851409       0.70713991       0.00000000
H        4.95349753      -2.08927372       0.81320424       0.21902142       0.02642360       0.14469586       0.89196892      -0.39988361       0.25846994       0.00000000
H        3.60861754       2.10509840       0.23873359       0.25193449       0.02424965       0.20355721       1.06487725       1.10579717       0.15816000       0.00000000
H        0.00676988       2.30072410      -2.76739598      -0.00322491       0.33096872       0.00344611      -0.47114387       1.00245415      -0.82387381       0.00000000
H        2.78567711      -1.82194597      -3.56331350      -0.19106511      -0.08502988       0.00701353       0.61986023      -0.47593055      -1.41096471       0.00000000
H       -0.70599218       2.70655512       1.98184882       0.12677127      -0.46491058      -0.07307356       0.18597387      -0.57507651      -0.49026598       0.00000000
18
Lattice="30.0 0.0 0.0 0.0 30.0 0.0 0.0 0.0 30.0" Properties=species:S:1:pos:R:3:momenta:R:3:forces:R:3:magmoms:R:1 target_atoms="9 7 15 13 16 17 0 1 14 4 12 10 6 2 8 11 5 3" energy=-46.36819937 stress="9.890670475573076e-05 -3.264801103756064e-05 3.435630584380576e-05 -3.264801103756064e-05 8.807996457315427e-05 1.6919501662971714e-05 3.435630584380576e-05 1.6919501662971714e-05 0.00026207675517717804" dipole="_JSON [[0.0, 0.0, 0.0]]" magmom=0.0 free_energy=-46.36819937 pbc="T T T"
Au       0.69763943      -1.09885965      -0.00665875      -2.33047165      -2.85948719       2.44226725       0.75576744       0.40288756      -0.33248824       0.00000000
Au      -1.68584566       0.09675874      -0.98493782       2.43999479       1.94060875      -1.15771505      -0.20241754       0.66564907      -0.25535709       0.00000000
Au       2.56627058       0.99825807       0.14374696      -0.88065597      -1.50859064      -0.29576406       0.48482640       0.11560508       0.21963796       0.00000000
Au       0.63031665       1.13505532      -2.01423470      -1.47027256      -2.70114929      -1.28114539      -0.15482021       1.16281431      -0.33654377       0.00000000
Au      -0.34688454      -1.40999368      -3.03674344       2.47498791       2.69292427      -3.34288736       0.00828382       0.13843949       0.23524785       0.00000000
Au       2.41064508      -1.09272197      -2.30473728      -1.04392423       0.49285263      -0.76114834       0.01598313      -0.47703536      -0.87867465       0.00000000
Au       2.11418677      -3.62048089       0.77922756      -5.85132607       3.27760531       1.61664926      -0.01143072      -0.23524666      -0.43593454       0.00000000
Au      -0.43193405      -3.31706153       1.25103461       0.86856214       1.40467386      -1.84567926      -0.68386755       0.11062715      -0.04435158       0.00000000
Au       3.70083786      -1.59689750       0.26912047       7.04072977      -1.68132011      -2.52176166      -0.28074666       0.66688884      -0.10015603       0.00000000
Au      -1.95161852      -2.49506849      -0.99360759       1.21560565      -2.22543766       0.32907939      -0.17053676      -0.48225899       0.29446185       0.00000000
Au      -1.76152953      -0.92797364       1.57784519       1.11164267       1.49486477       4.17507146       0.11216873      -0.32539565      -0.22336366       0.00000000
Au      -0.31344434       1.41740016       1.04441226      -3.72025247      -3.38307693       0.17393827       0.50564985      -0.33210984      -0.07545303       0.00000000
Au       0.46807913      -3.51710880      -1.59539104       0.47593914       2.91355679       2.44198436       0.51823196      -0.18278100       0.41885036       0.00000000
H        5.04703525      -2.21621145       0.80013287      -0.24716839      -0.05355814      -0.18618252       0.00580820      -0.09546256      -0.05400373       0.00000000
H        3.79478925       2.00395414       0.67320676      -0.23909900      -0.16408872       0.01453717      -0.85196551      -0.60062749      -0.45812066       0.00000000
H        0.18685757       2.55018976      -2.88210804       0.06173737      -0.05045093      -0.13888580       0.34676913      -1.32924003       0.70756045       0.00000000
H        2.95031098      -1.60199450      -3.84506905       0.24773504       0.26429898      -0.11230559      -0.31468192       0.54906391       1.30285238       0.00000000
H       -0.71822248       2.32237085       2.26467081      -0.15376414       0.14577425       0.44994787      -0.08302180       0.24818217       0.01583611       0.00000000
18
Lattice="30.0 0.0 0.0 0.0 30.0 0.0 0.0 0.0 30.0" Properties=species:S:1:pos:R:3:momenta:R:3:forces:R:3:magmoms:R:1 target_atoms="9 7 17 14 13 10 12 16 0 15 6 4 1 11 2 8 3 5" energy=-46.40146387 stress="-6.647088006241366e-05 -3.472278229364112e-05 4.455491303097163e-05 -3.472278229364112e-05 -5.678260986892564e-05 4.7669270047059225e-05 4.455491303097163e-05 4.7669270047059225e-05 2.841247925417238e-05" dipole="_JSON [[0.0, 0.0, 0.0]]" magmom=0.0 free_energy=-46.40146387 pbc="T T T"
Au       0.68147703      -1.12794362       0.01747893      -0.16501165      -1.70909290       1.34531546       0.87559586       0.69584389      -0.36848908       0.00000000
Au      -1.66018065       0.12984589      -1.00186936       1.58894086       3.15983914      -1.48927513      -0.49857373       0.01092609      -0.15420308       0.00000000
Au       2.54779141       0.96742357       0.13856329      -2.23562523      -3.59192611      -0.57775514      -0.57045656      -0.40840696      -0.08735586       0.00000000
Au       0.61730739       1.10445921      -2.02707119      -0.58588846      -2.21394748      -0.83899779       0.90406700      -1.15467732       1.45459568       0.00000000
Au      -0.31675673      -1.37409384      -3.07535969       2.24315224       2.97294798      -2.83663671      -0.07932802      -0.12677114       0.44447085       0.00000000
Au       2.39660342      -1.08819879      -2.30943920      -0.98934783       0.37997919       0.11196969      -0.63407320      -0.09343706       1.25274062       0.00000000
Au       2.04442661      -3.58127705       0.79160561      -5.00649750       3.08758042       0.34462982       0.93450948      -0.15789192      -0.45941662       0.00000000
Au      -0.43578551      -3.29864842       1.23098394      -1.72088679       1.49846710      -1.21611070      -1.39253250      -0.13266193       0.41219862       0.00000000
Au       3.77907305      -1.60953147       0.23446043       5.56936938      -0.54360485      -2.95613562       0.16555161      -0.05411667      -0.24827735       0.00000000
Au      -1.93906452      -2.52866753      -0.98562438       0.79085947      -3.02245583       0.91457459      -0.31290582       0.08282427       0.18624804       0.00000000
Au      -1.74503908      -0.91461827       1.62604314       1.49688387       0.61979775       3.48802305      -0.03133143      -0.37215099      -0.39748145       0.00000000
Au      -0.35683758       1.37522636       1.05107851      -3.16261904      -3.24119649       0.92626894       0.63406543      -0.07070511       0.23424194       0.00000000
Au       0.48269551      -3.48349415      -1.55942105       1.86243090       2.51954956       3.18811547       0.58094630      -0.17857683      -0.04076682       0.00000000
H        5.17551624      -2.43092632       0.35271479       0.16053077      -0.02138611      -0.19005015      -0.66572193       0.38095085       0.04958699       0.00000000
H        3.49031428       2.17743154       0.52022223       0.13341879       0.43784561      -0.10359469       0.15315960       0.07493452      -0.04103820       0.00000000
H        0.15641875       1.99905568      -3.12874293      -0.12487645      -0.32531031      -0.00422012      -0.58480575       1.23564321      -1.31041026       0.00000000
H        3.35978196      -0.83408940      -3.46824476       0.02419780       0.18457771       0.32302017       0.60143977       0.05479040      -0.85800298       0.00000000
H       -0.72419142       2.30789623       2.27519245       0.12096886      -0.19166438      -0.42914115      -0.07960610       0.21348270      -0.06864105       0.00000000
18
Lattice="30.0 0.0 0.0 0.0 30.0 0.0 0.0 0.0 30.0" Properties=species:S:1:pos:R:3:momenta:R:3:forces:R:3:magmoms:R:1 target_atoms="9 15 17 16 14 4 13 12 7 0 10 1 3 2 11 5 6 8" energy=-46.19537872 stress="-0.00012086412164927778 -9.010230091106821e-05 -6.678223774515834e-05 -9.010230091106821e-05 -5.9640440859939434e-05 -4.005349920032986e-05 -6.678223774515834e-05 -4.005349920032986e-05 0.0001111410175933582" dipole="_JSON [[0.0, 0.0, 0.0]]" magmom=0.0 free_energy=-46.19537872 pbc="T T T"
Au       0.73323450      -1.12583208       0.04188887       2.85437357       1.81239584       0.58785038      -0.39344838       0.24912060      -0.19111845       0.00000000
Au      -1.66367643       0.20436691      -1.04878181      -1.78544066       1.51659586      -1.67482034      -0.64944629      -0.88840696       0.02998617       0.00000000
Au       2.45976798       0.85359900       0.10976240      -3.13858210      -4.17572959      -0.82727522       0.32217561       0.23587784       0.26133208       0.00000000
Au       0.62398472       1.05089023      -2.04367801       1.33592011      -0.77839680      -0.13660596       0.22921754       1.74976941      -0.53176836       0.00000000
Au      -0.26686241      -1.30838547      -3.11677990       0.84168421       1.26212449      -0.00536023      -0.44777595      -0.50910332       0.68057543       0.00000000
Au       2.38109210      -1.08178466      -2.26491432       0.25543288      -0.37771144       2.55607053       0.45253127      -0.58898999      -0.42463025       0.00000000
Au       1.99033421      -3.49785684       0.77881877       1.01816067       2.55521115      -0.53703686       0.79974929      -0.30248178       0.02160519       0.00000000
Au      -0.59196864      -3.27223209       1.24619350      -7.88592761      -0.01272045       2.21303739      -0.15525296      -0.45259537       0.43802785       0.00000000
Au       3.89804341      -1.60726370       0.12370578       2.53431416       0.51459047      -4.28698070      -1.12025433       0.38968343      -0.07625412       0.00000000
Au      -1.93437182      -2.59387529      -0.95840842      -0.30096416      -0.86168828       0.52919539      -0.24800464       0.72954687      -0.42954286       0.00000000
Au      -1.70779450      -0.93047523       1.69235630       0.84843693      -1.58623608       1.18754116      -0.28549942      -0.17172774      -0.37730350       0.00000000
Au      -0.39351667       1.29889506       1.06858865       0.66973713      -1.66321023      -0.06785659       0.28642931       0.86903864      -0.00423356       0.00000000
Au       0.57002298      -3.41991341      -1.49515185       3.66085898       1.86783910       0.59056608       0.11823870      -0.19548275      -0.52375870       0.00000000
H        5.34687950      -2.00182818       0.44645149       0.10392668       0.12930996       0.14952184       0.58353145      -0.31348008       0.13429992       0.00000000
H        3.56046925       1.81062658       0.73739361      -0.33969966      -0.30474698      -0.09279790       0.10616990       0.28328517      -0.14951230       0.00000000
H        0.19315027       2.44443797      -2.89664827      -0.15826598       0.20937528      -0.23058193       0.28934048      -1.08438899       0.52431308       0.00000000
H        3.10146253      -1.57049956      -3.66119987      -0.17660754      -0.30312807      -0.32619647      -0.26174054       0.37328142       0.62023614       0.00000000
H       -1.24808307       2.60491777       1.50092633      -0.33735761       0.19612574       0.37172945       0.37403895      -0.37294641      -0.00225376       0.00000000
18
Lattice="30.0 0.0 0.0 0.0 30.0 0.0 0.0 0.0 30.0" Properties=species:S:1:pos:R:3:momenta:R:3:forces:R:3:magmoms:R:1 target_atoms="13 9 16 4 15 12 7 17 1 14 0 5 6 3 10 8 11 2" energy=-45.74290548 stress="-3.3797010452544485e-05 -3.0393428145072582e-05 -5.610282838549831e-05 -3.0393428145072582e-05 -0.00023343412027398874 -2.441147217618918e-05 -5.610282838549831e-05 -2.441147217618918e-05 -0.00012887833795558528" dipole="_JSON [[0.0, 0.0, 0.0]]" magmom=0.0 free_energy=-45.74290548 pbc="T T T"
Au       0.76609353      -1.09146503       0.05336170      -0.21727140       0.50950694       0.44250424      -1.10096428      -1.40787187      -0.13079037       0.00000000
Au      -1.73045424       0.20275641      -1.08482433      -4.18486867      -1.43963040      -1.61768546      -0.07786412      -0.60693876       0.03567476       0.00000000
Au       2.41776599       0.78881406       0.10310350      -0.41274211      -0.84577576       0.30694276       1.20788683       2.98396099       0.30971444       0.00000000