
units	metal
atom_style atomic
newton on

read_data au20h16.data
Reading data file ...
  orthogonal box = (0 0 0) to (30 30 30)
  1 by 1 by 1 MPI processor grid
  reading atoms ...
  36 atoms
  read_data CPU = 0.175 seconds

pair_style	flare
pair_coeff	* * lmp.flare
Reading potential file lmp.flare with DATE: Wed

compute unc all flare/std/atom L_inv_lmp.flare sparse_desc_lmp.flare
Reading potential file L_inv_lmp.flare with DATE: Wed
Reading potential file sparse_desc_lmp.flare with DATE: Wed
compute MaxUnc all reduce max c_unc

mass            1 196.97
mass            2 1.00

min_style cg
minimize 1.0e-4 1.0e-6 100 1000
Neighbor list info ...
  update: every = 1 steps, delay = 0 steps, check = yes
  max neighbors/atom: 2000, page size: 100000
  master list distance cutoff = 7
  ghost atom cutoff = 7
  binsize = 3.5, bins = 9 9 9
  2 neighbor lists, perpetual/occasional/extra = 1 1 0
  (1) pair flare, perpetual
      attributes: full, newton on
      pair build: full/bin/atomonly
      stencil: full/bin/3d
      bin: standard
  (2) compute flare/std/atom, occasional, copy from (1)
      attributes: full, newton on
      pair build: copy
      stencil: none
      bin: none
Per MPI rank memory allocation (min/avg/max) = 16.53 | 16.53 | 16.53 Mbytes
   Step          Temp          E_pair         E_mol          TotEng         Press     
         0   0             -105.82869      0             -105.82869     -267.50799    
         9   0             -106.17159      0             -106.17159     -7.2843163    
Loop time of 3.60225 on 15 procs for 9 steps with 36 atoms

99.6% CPU use with 1 MPI tasks x 15 OpenMP threads

Minimization stats:
  Stopping criterion = energy tolerance
  Energy initial, next-to-last, final = 
     -105.828692817599  -106.161285306428  -106.171587849941
  Force two-norm initial, final = 1.6765831 0.38324363
  Force max component initial, final = 0.55601565 0.1160467
  Final line search alpha, max atom move = 0.36441379 0.042289018
  Iterations, force evaluations = 9 18

MPI task timing breakdown:
Section |  min time  |  avg time  |  max time  |%varavg| %total
---------------------------------------------------------------
Pair    | 3.6021     | 3.6021     | 3.6021     |   0.0 |100.00
Neigh   | 0          | 0          | 0          |   0.0 |  0.00
Comm    | 1.3654e-05 | 1.3654e-05 | 1.3654e-05 |   0.0 |  0.00
Output  | 0          | 0          | 0          |   0.0 |  0.00
Modify  | 0          | 0          | 0          |   0.0 |  0.00
Other   |            | 0.0001568  |            |       |  0.00

Nlocal:             36 ave          36 max          36 min
Histogram: 1 0 0 0 0 0 0 0 0 0
Nghost:              0 ave           0 max           0 min
Histogram: 1 0 0 0 0 0 0 0 0 0
Neighs:              0 ave           0 max           0 min
Histogram: 1 0 0 0 0 0 0 0 0 0
FullNghs:          924 ave         924 max         924 min
Histogram: 1 0 0 0 0 0 0 0 0 0

Total # of neighbors = 924
Ave neighs/atom = 25.666667
Neighbor list builds = 0
Dangerous builds = 0

velocity all create 300.0 4928459 rot yes dist gaussian
fix 1 all nvt temp 300 300 $(100.0*dt)
fix 1 all nvt temp 300 300 0.10000000000000000555
dump dump_all all custom 10 output.dump id type x y z fx fy fz c_unc
thermo 10
thermo_style custom step temp pe etotal press vol c_MaxUnc

run 100000
Per MPI rank memory allocation (min/avg/max) = 15.41 | 15.41 | 15.41 Mbytes
   Step          Temp          PotEng         TotEng         Press          Volume        c_MaxUnc   
         9   300           -106.17159     -104.81436      46.407645      27000          0.032570315  
        10   294.00899     -106.14398     -104.81385      17.816321      27000          0.033567081  
        20   224.42764     -105.8255      -104.81017     -61.02024       27000          0.036683723  
        30   179.94617     -105.61565     -104.80155      191.67534      27000          0.037705188  
        40   194.9184      -105.67082     -104.78899     -69.684249      27000          0.038196424  
        50   171.88776     -105.54763     -104.76999      223.71626      27000          0.034191193  
        60   157.67644     -105.4586      -104.74526      35.387514      27000          0.030102335  
        70   143.71019     -105.36838     -104.71822      192.74257      27000          0.031872472  
        80   137.4852      -105.30991     -104.68791      124.64737      27000          0.034588892  
        90   178.47761     -105.45664     -104.64919      122.52732      27000          0.028705891  
       100   184.47336     -105.4402      -104.60563      141.61243      27000          0.033015123  
       110   183.7009      -105.39518     -104.56409      73.397488      27000          0.036489374  
       120   189.43466     -105.38393     -104.52691      61.039509      27000          0.036476243  
       130   166.92674     -105.25013     -104.49494      48.217868      27000          0.038007589  
       140   181.78936     -105.28761     -104.46518      99.596678      27000          0.036910456  
       150   178.01735     -105.24158     -104.43621     -74.672707      27000          0.033888102  
       160   150.66157     -105.09141     -104.40981      82.826912      27000          0.02839452   
       170   150.01028     -105.06052     -104.38186      21.984634      27000          0.029931296  
       180   137.84712     -104.97667     -104.35304     -74.994618      27000          0.039587944  
       190   184.54346     -105.15859     -104.32369     -17.011323      27000          0.024760028  
       200   173.38136     -105.06849     -104.28409     -117.4847       27000          0.02754556   
       210   190.42053     -105.10372     -104.24224     -107.62508      27000          0.032551546  
       220   198.07914     -105.09572     -104.19959     -168.95484      27000          0.028549783  
       230   188.55541     -105.00541     -104.15236     -97.826587      27000          0.030588065  
       240   204.70714     -105.02841     -104.10229     -69.626591      27000          0.026216273  
       250   223.02971     -105.05932     -104.05031     -212.32214      27000          0.026545254  
       260   222.44332     -105.00837     -104.00201     -0.41311837     27000          0.026847714  
       270   252.64631     -105.10099     -103.95799     -214.73854      27000          0.026650353  
       280   267.76687     -105.11918     -103.90778     -147.84111      27000          0.024625342  
       290   271.58562     -105.0852      -103.85652     -23.602836      27000          0.023228326  
       300   259.70243     -104.98277     -103.80785     -172.47767      27000          0.021865191  
       310   233.12876     -104.81293     -103.75823      67.839373      27000          0.023752459  
       320   261.84028     -104.89548     -103.71089     -207.07195      27000          0.019615389  
       330   285.52586     -104.95631     -103.66457      99.027318      27000          0.023535453  
       340   304.76317     -104.9934      -103.61461     -94.253492      27000          0.027424821  
       350   327.0374      -105.04792     -103.56837     -56.065894      27000          0.024401064  
       360   326.44313     -104.99747     -103.52061      83.253437      27000          0.021124586  
       370   315.42468     -104.90766     -103.48065     -21.766209      27000          0.021754487  
       380   355.8318      -105.05771     -103.44789      24.466512      27000          0.02548455   
       390   348.11599     -104.99108     -103.41617     -1.4412853      27000          0.027649846  
       400   323.40523     -104.84882     -103.3857       59.112903      27000          0.024007339  
       410   314.4505      -104.78434     -103.36174     -10.334037      27000          0.02189785   
       420   264.39437     -104.53461     -103.33846      51.601654      27000          0.021720379  
       430   305.75207     -104.69688     -103.31363      24.926637      27000          0.020919377  
       440   280.68067     -104.55691     -103.28708     -33.697572      27000          0.022148159  
       450   293.5647      -104.58922     -103.2611       151.57318      27000          0.029151925  
       460   342.59539     -104.78831     -103.23838     -207.01494      27000          0.018763316  
       470   334.11801     -104.72667     -103.21509      125.06234      27000          0.0226259    
       480   337.51803     -104.71779     -103.19083     -84.619022      27000          0.021890558  
       490   356.24034     -104.78446     -103.17279     -66.881165      27000          0.024751087  
       500   342.75099     -104.71442     -103.16377     -10.707572      27000          0.030401238  
       510   310.18574     -104.56149     -103.15818     -173.85965      27000          0.03738634   
       520   330.72475     -104.65441     -103.15818      13.762094      27000          0.0264797    
       530   359.80419     -104.79224     -103.16444     -5.8744784      27000          0.019409341  
       540   309.99656     -104.57396     -103.1715      -120.969        27000          0.024520435  
       550   316.46636     -104.61142     -103.17969      11.830084      27000          0.024280285  
       560   301.16477     -104.55264     -103.19014     -31.855334      27000          0.029203641  
       570   279.37804     -104.46694     -103.203       -60.814003      27000          0.023935678  
       580   314.88816     -104.63814     -103.21355     -40.5445        27000          0.02214716   
       590   323.96126     -104.69072     -103.22509      116.75807      27000          0.019373344  
       600   344.79574     -104.79923     -103.23934      8.0184551      27000          0.021125387  
       610   318.13007     -104.69239     -103.25314      20.764486      27000          0.02529728   
       620   302.81174     -104.63892     -103.26897      2.5288127      27000          0.022759316  
       630   281.88718     -104.56139     -103.28611      0.65596814     27000          0.024339901  
       640   330.2406      -104.80282     -103.30877      3.0907507      27000          0.020435999  
       650   325.48186     -104.80471     -103.3322      -51.255288      27000          0.021393615  
       660   276.80069     -104.60648     -103.3542       194.06863      27000          0.0196892    
       670   288.19606     -104.67876     -103.37493     -16.300406      27000          0.01862458   
       680   311.68586     -104.80932     -103.39923     -8.4175567      27000          0.027692305  
       690   248.08154     -104.54383     -103.42148      155.87528      27000          0.02286167   
       700   236.61266     -104.50929     -103.43883     -34.425247      27000          0.023694564  
       710   285.53408     -104.74722     -103.45544      110.70774      27000          0.020654736  
       720   307.49603     -104.86255     -103.47141      57.97954       27000          0.027252637  
       730   288.97663     -104.7925      -103.48514      42.217691      27000          0.025694944  
       740   229.00921     -104.53327     -103.49721      134.1373       27000          0.020667826  
       750   257.47209     -104.67308     -103.50825      90.021587      27000          0.021501879  
       760   304.20648     -104.89379     -103.51753      0.52272518     27000          0.019634166  
       770   292.39635     -104.84649     -103.52366      110.56617      27000          0.025505722  
       780   282.22065     -104.80458     -103.52778      109.89142      27000          0.021520276  
       790   243.44763     -104.63054     -103.52916     -72.475053      27000          0.024008745  
       800   238.40521     -104.60506     -103.52649      267.96872      27000          0.020755425  
       810   271.33748     -104.75305     -103.52549     -69.584537      27000          0.031659637  
       820   307.93008     -104.91537     -103.52226      176.70877      27000          0.018926761  
       830   296.18917     -104.85544     -103.51545     -74.541776      27000          0.018634843  
       840   304.004       -104.88459     -103.50924      161.4494       27000          0.031665993  
       850   317.65049     -104.94027     -103.50319     -59.08679       27000          0.017514775  
       860   269.40988     -104.71358     -103.49474      113.80539      27000          0.025448283  
       870   320.63347     -104.93919     -103.48861      8.549918       27000          0.024637508  
       880   267.58225     -104.69037     -103.4798      -35.426172      27000          0.022466448  
       890   280.74721     -104.73841     -103.46828      35.615566      27000          0.021862553  
       900   296.89313     -104.7974      -103.45422     -61.019733      27000          0.021839737  
       910   281.3033      -104.7085      -103.43586     -26.062588      27000          0.017546446  
       920   280.60921     -104.68292     -103.41342      68.225992      27000          0.017699228  
       930   323.09764     -104.84732     -103.38559     -241.51253      27000          0.016425158  
       940   309.09304     -104.7497      -103.35133      17.212124      27000          0.018416865  
       950   356.04108     -104.92918     -103.31841     -250.06642      27000          0.022522969  
       960   351.61618     -104.87405     -103.2833      -128.94713      27000          0.025362825  
       970   341.98491     -104.79692     -103.24974     -138.44956      27000          0.026359968  
       980   312.2341      -104.62885     -103.21627     -28.410698      27000          0.049191176  
       990   310.97491     -104.59258     -103.1857      -103.36775      27000          0.030525772  
      1000   300.49276     -104.51693     -103.15747      51.806519      27000          0.032976057  
      1010   301.80666     -104.4943      -103.12889     -91.513042      27000          0.036985857  
      1020   288.81237     -104.40548     -103.09887      88.042798      27000          0.029472968  
      1030   298.3379      -104.41909     -103.06937      48.808777      27000          0.023544755  
      1040   302.20913     -104.4061      -103.03888      81.178165      27000          0.027465776  
      1050   344.72959     -104.56502     -103.00543      144.20363      27000          0.029851929  
      1060   346.2218      -104.53793     -102.97159      5.8757759      27000          0.033279372  
      1070   370.58148     -104.61899     -102.94244      143.73492      27000          0.027891172  
      1080   331.4847      -104.40897     -102.9093       112.94555      27000          0.025473637  
      1090   343.52112     -104.43344     -102.87931      102.15081      27000          0.024618575  
      1100   332.19587     -104.35538     -102.85249      111.98185      27000          0.023972075  
      1110   268.13917     -104.04331     -102.83022      152.9852       27000          0.038070176  
      1120   320.34942     -104.26048     -102.81119      95.515917      27000          0.023718116  
      1130   363.57691     -104.43954     -102.79468      7.8397007      27000          0.022995142  
      1140   369.83931     -104.45348     -102.78028      64.485694      27000          0.028380523  
      1150   339.71318     -104.30478     -102.76788      96.47615       27000          0.030564162  
      1160   350.87279     -104.34687     -102.75948      39.800856      27000          0.03115986   
      1170   373.43433     -104.45347     -102.76402     -116.52916      27000          0.046048864  
      1180   404.75096     -104.60638     -102.77524      47.746817      27000          0.040460144  
      1190   359.62918     -104.42157     -102.79457     -189.66101      27000          0.042070171  
      1200   355.64727     -104.43749     -102.8285      -11.942319      27000          0.031661118  
      1210   380.21151     -104.59946     -102.87935     -186.01923      27000          0.043169183  
      1220   389.6435      -104.70723     -102.94444      4.8329342      27000          0.049515668  
      1230   297.20845     -104.35717     -103.01257     -183.96107      27000          0.048886799  
      1240   319.59718     -104.53957     -103.09368     -30.391106      27000          0.045328523  
      1250   312.75081     -104.59343     -103.17851     -175.05308      27000          0.028542548  
      1260   297.49759     -104.59746     -103.25155     -102.1838       27000          0.032928842  
      1270   288.29725     -104.61338     -103.3091      -76.388741      27000          0.031754964  
      1280   294.02108     -104.68745     -103.35727     -228.39784      27000          0.035013674  
      1290   285.28527     -104.6881      -103.39744      75.898399      27000          0.0253181    
      1300   265.99007     -104.63023     -103.42687     -236.228        27000          0.03036687   
      1310   286.02717     -104.74065     -103.44663      114.62407      27000          0.03089818   
      1320   310.52117     -104.87206     -103.46723     -71.740309      27000          0.041845402  
      1330   305.68218     -104.86431     -103.48137     -123.57298      27000          0.036744678  
      1340   336.92063     -105.0224      -103.49814      118.47799      27000          0.028697453  
      1350   303.36514     -104.88506     -103.5126      -242.35046      27000          0.038650548  
      1360   333.96387     -105.04442     -103.53353      71.651717      27000          0.024834199  
      1370   343.59082     -105.10585     -103.55141     -67.406537      27000          0.028745083  
      1380   319.15936     -105.01335     -103.56944     -92.792027      27000          0.047426151  
      1390   342.24658     -105.13883     -103.59047      124.52213      27000          0.0334238    
      1400   300.08414     -104.96529     -103.60768     -87.275866      27000          0.031187863  
      1410   271.6244      -104.85599     -103.62714      110.11714      27000          0.04339366   
      1420   293.62738     -104.9728      -103.6444      -42.209964      27000          0.030956266  
      1430   260.26948     -104.83713     -103.65964      146.67645      27000          0.025729311  
      1440   237.47302     -104.74539     -103.67104     -46.181159      27000          0.03540354   
      1450   258.674       -104.84975     -103.67948      127.0267       27000          0.027160685  
      1460   239.7007      -104.76487     -103.68044     -32.620536      27000          0.030069885  
      1470   255.70876     -104.83552     -103.67866      28.862753      27000          0.032960983  
      1480   233.05149     -104.7254      -103.67105      52.456562      27000          0.037700612  
      1490   237.98109     -104.7373      -103.66065     -94.114849      27000          0.036585328  
      1500   296.4855      -104.98667     -103.64533      105.98728      27000          0.030950468  
      1510   276.03324     -104.87399     -103.62518     -235.45761      27000          0.035422143  
      1520   260.1299      -104.77701     -103.60015      52.514461      27000          0.026304954  
      1530   290.48777     -104.88775     -103.57356     -172.10399      27000          0.044968558  
      1540   337.66018     -105.06855     -103.54094     -113.79078      27000          0.040706918  
      1550   303.24063     -104.87908     -103.50719     -78.756926      27000          0.03767746   
      1560   303.41499     -104.84558     -103.4729      -75.876571      27000          0.038678997  
      1570   308.06678     -104.83317     -103.43944      42.63823       27000          0.044033875  
      1580   280.90579     -104.67396     -103.40311     -161.92576      27000          0.044030765  
      1590   324.23138     -104.83369     -103.36683      198.81231      27000          0.029480151  
      1600   277.48007     -104.58566     -103.33031     -188.32728      27000          0.042084701  
      1610   355.74532     -104.90452     -103.29509      301.79538      27000          0.028154886  
      1620   365.61285     -104.91288     -103.2588      -163.73324      27000          0.038934318  
      1630   358.59985     -104.85187     -103.22953      155.17906      27000          0.047205576  
      1640   381.98378     -104.92738     -103.19925      53.632019      27000          0.043749355  
      1650   383.98266     -104.91146     -103.17428     -26.239039      27000          0.057012584  
      1660   384.11677     -104.89328     -103.1555       183.65769      27000          0.03611081   
      1670   346.27867     -104.71507     -103.14847     -38.650755      27000          0.044744241  
      1680   379.41293     -104.86993     -103.15343      151.70265      27000          0.043236053  
      1690   386.06631     -104.90966     -103.16305     -4.7996285      27000          0.036112259  
      1700   354.4482      -104.78348     -103.17992     -16.812473      27000          0.055342033  
      1710   380.53794     -104.93303     -103.21144      83.04038       27000          0.035031567  
      1720   335.27139     -104.76213     -103.24533     -98.368266      27000          0.039277516  
      1730   348.7304      -104.86389     -103.28619     -60.585635      27000          0.055000598  
      1740   326.86333     -104.81643     -103.33766     -90.415629      27000          0.042034332  
      1750   363.41791     -105.04757     -103.40343     -48.590276      27000          0.09095959   
      1760   370.62598     -105.1554      -103.47865     -157.54618      27000          0.075800438  
      1770   314.01827     -104.97617     -103.55552     -138.17019      27000          0.053201111  
      1780   312.22215     -105.0459      -103.63337     -73.109953      27000          0.053587459  
      1790   329.13639     -105.19643     -103.70739     -218.83022      27000          0.043805671  
      1800   341.50931     -105.31604     -103.77102     -48.511771      27000          0.046877572  
      1810   324.67892     -105.28763     -103.81875     -210.80333      27000          0.040297438  
      1820   255.96414     -105.01148     -103.85347      39.355843      27000          0.063114811  
      1830   303.44667     -105.25339     -103.88056     -108.24193      27000          0.034430589  
      1840   345.053       -105.46105     -103.89999     -26.638148      27000          0.03384365   
      1850   324.40192     -105.38262     -103.91499      138.21224      27000          0.044802976  
      1860   278.15559     -105.18524     -103.92683     -173.32502      27000          0.040331862  
      1870   277.13666     -105.19179     -103.938        296.60735      27000          0.050721352  
      1880   264.42295     -105.1474      -103.95113     -6.6874925      27000          0.0466191    
      1890   244.63102     -105.0674      -103.96066      276.44447      27000          0.056835578  
      1900   281.18346     -105.23918     -103.96708      122.43544      27000          0.05424789   
      1910   267.48198     -105.17843     -103.96831      185.17185      27000          0.043132707  
      1920   234.40302     -105.02544     -103.96498      132.72701      27000          0.04971398   
      1930   251.63031     -105.0966      -103.95819      215.93375      27000          0.047103835  
      1940   264.43579     -105.14403     -103.9477       169.62098      27000          0.047554051  
      1950   249.10071     -105.05745     -103.93049      181.94725      27000          0.044105244  
      1960   238.67842     -104.98675     -103.90695      249.04345      27000          0.054803918  
      1970   265.4539      -105.08337     -103.88243      141.80073      27000          0.047479209  
      1980   253.20392     -105.00254     -103.85702      249.1551       27000          0.062186585  
      1990   259.01198     -105.00066     -103.82886      48.411505      27000          0.052734668  
      2000   277.41244     -105.05163     -103.79659      192.49465      27000          0.058361396  
      2010   264.4332      -104.9583      -103.76198      23.238416      27000          0.047411994  
      2020   287.03385     -105.02392     -103.72535      166.28453      27000          0.058761264  
      2030   264.16908     -104.88308     -103.68795      22.158075      27000          0.049536804  
      2040   282.81841     -104.93165     -103.65215      11.569375      27000          0.044113274  
      2050   324.77388     -105.07979     -103.61048      176.73209      27000          0.044015885  
      2060   281.11158     -104.84206     -103.57028     -220.01435      27000          0.041291186  
      2070   298.1796      -104.8775      -103.5285       211.30304      27000          0.053521833  
      2080   289.35154     -104.80253     -103.49347     -166.76147      27000          0.049059884  
      2090   332.97424     -104.97126     -103.46485     -211.16163      27000          0.056725686  
      2100   323.03847     -104.89745     -103.43599     -109.89288      27000          0.041172827  
      2110   272.18108     -104.64288     -103.41151     -231.47464      27000          0.058074917  
      2120   298.67822     -104.74249     -103.39123     -144.3098       27000          0.042214742  
      2130   345.67807     -104.93738     -103.3735      -425.44069      27000          0.049703732  
      2140   345.72459     -104.92182     -103.35772     -48.031331      27000          0.045332961  
      2150   315.14894     -104.76514     -103.33938     -546.34932      27000          0.046885458  
      2160   270.82068     -104.54903     -103.32381     -58.608983      27000          0.046340349  
      2170   296.68086     -104.65367     -103.31145     -429.96262      27000          0.041173089  
      2180   340.40661     -104.84263     -103.30259     -319.60884      27000          0.046530379  
      2190   336.09562     -104.81343     -103.2929      -252.31094      27000          0.045821481  
      2200   316.29248     -104.71467     -103.28373     -349.91543      27000          0.050938642  
      2210   327.19699     -104.75606     -103.27578     -170.60136      27000          0.054006182  
      2220   325.25401     -104.74594     -103.27446     -301.04612      27000          0.056689144  
      2230   379.70034     -104.99396     -103.27615     -112.98215      27000          0.046712559  
      2240   397.49247     -105.08518     -103.28688     -141.02383      27000          0.04824332   
      2250   390.21068     -105.0733      -103.30794     -129.24919      27000          0.048044453  
      2260   411.32654     -105.20181     -103.34092      10.266199      27000          0.057448291  
      2270   353.90626     -104.97995     -103.37884      113.6898       27000          0.054036187  
      2280   397.17264     -105.23488     -103.43803      101.87684      27000          0.059340523  
      2290   335.31639     -105.02459     -103.50758      222.0866       27000          0.066090864  
      2300   343.84421     -105.13268     -103.57709      222.74176      27000          0.066396318  
      2310   329.76368     -105.13143     -103.63954      194.31402      27000          0.064689693  
      2320   282.97658     -104.98034     -103.70012      486.14967      27000          0.072046073  
      2330   267.9976      -104.96316     -103.75071      231.66638      27000          0.089266828  
      2340   297.65402     -105.14055     -103.79393      393.49864      27000          0.060583956  
      2350   267.15704     -105.03304     -103.8244       464.24289      27000          0.080785953  
      2360   239.75056     -104.92872     -103.84406      190.60803      27000          0.070547272  
      2370   287.60275     -105.16593     -103.86479      583.33506      27000          0.076910085  
      2380   279.9523      -105.14679     -103.88025      109.92081      27000          0.097714755  
      2390   330.83121     -105.38962     -103.89291      379.67306      27000          0.082652719  
      2400   286.35174     -105.19586     -103.90037      194.52928      27000          0.070041195  
      2410   311.31101     -105.31613     -103.90772      217.44636      27000          0.083165537  
      2420   314.47683     -105.33849     -103.91576      228.96748      27000          0.07143712   
      2430   303.70841     -105.2961      -103.92209     -37.335645      27000          0.072762553  
      2440   325.28203     -105.40283     -103.93122      186.82622      27000          0.081526757  
      2450   237.17074     -105.00849     -103.93551     -23.639301      27000          0.074078012  
      2460   322.18787     -105.40153     -103.94391     -1.635196       27000          0.06971278   
      2470   327.35575     -105.42815     -103.94716     -49.029462      27000          0.074447927  
      2480   273.27659     -105.18454     -103.9482      -295.22639      27000          0.060690039  
      2490   249.67158     -105.07906     -103.94952      129.45462      27000          0.049357691  
      2500   258.76036     -105.12051     -103.94985     -438.96982      27000          0.056218342  
      2510   278.62582     -105.2077      -103.94717     -79.81243       27000          0.063770576  
      2520   246.32633     -105.05428     -103.93987     -220.15914      27000          0.061598146  
      2530   272.00257     -105.15962     -103.92906     -369.70815      27000          0.060756662  
      2540   257.79886     -105.07961     -103.9133      -111.22901      27000          0.0564901    
      2550   209.36446     -104.83942     -103.89224     -492.51228      27000          0.064902087  
      2560   279.15565     -105.13255     -103.86962     -100.99107      27000          0.076975487  
      2570   229.04379     -104.87173     -103.83551     -553.14689      27000          0.057553695  
      2580   277.62132     -105.05752     -103.80153     -255.888        27000          0.063302576  
      2590   243.34231     -104.86042     -103.75951     -287.07345      27000          0.081585702  
      2600   254.50435     -104.87004     -103.71864     -448.87154      27000          0.075603438  
      2610   300.08593     -105.03306     -103.67544     -265.88401      27000          0.067089591  
      2620   326.52453     -105.10409     -103.62686     -355.35166      27000          0.059243184  
      2630   314.61447     -105.00347     -103.58012     -168.93714      27000          0.062904729  
      2640   270.63189     -104.7651      -103.54074     -301.63109      27000          0.055293726  
      2650   288.13734     -104.81123     -103.50767      40.534427      27000          0.081727307  
      2660   317.32998     -104.9186      -103.48296     -238.91165      27000          0.086727544  
      2670   401.84871     -105.28252     -103.46452      93.012796      27000          0.07890907   
      2680   355.28842     -105.05474     -103.44738     -64.51228       27000          0.058568636  
      2690   358.31574     -105.0593      -103.43824      106.3684       27000          0.085351525  
      2700   324.93454     -104.90322     -103.43319      244.1925       27000          0.060488225  
      2710   375.01962     -105.13581     -103.43918      194.22045      27000          0.076408038  
      2720   382.89445     -105.17977     -103.44751      326.07828      27000          0.070156114  
      2730   347.89076     -105.03214     -103.45824      315.89587      27000          0.064088094  
      2740   379.12436     -105.18833     -103.47314      522.28958      27000          0.080540154  
      2750   319.28773     -104.93297     -103.48847      267.27949      27000          0.064235579  
      2760   304.77556     -104.88559     -103.50675      656.27213      27000          0.06611603   
      2770   255.1688      -104.68004     -103.52563      278.64795      27000          0.10034195   
      2780   368.32369     -105.21765     -103.55131      566.5958       27000          0.054912723  
      2790   372.09503     -105.25887     -103.57547      321.40763      27000          0.056483837  
      2800   349.5505      -105.17921     -103.59781      389.42476      27000          0.056589563  
      2810   349.66122     -105.20575     -103.62385      392.4497       27000          0.046713172  
      2820   359.92585     -105.28336     -103.65501      222.63299      27000          0.069365311  
      2830   347.46143     -105.26448     -103.69253      223.89183      27000          0.055640253  
      2840   357.56741     -105.34953     -103.73186      187.32898      27000          0.063276014  
      2850   351.45994     -105.36283     -103.77279      47.051057      27000          0.060860624  
      2860   345.44122     -105.37731     -103.8145      -0.027716318    27000          0.075297013  
      2870   328.92927     -105.34188     -103.85377      104.73087      27000          0.08217859   
      2880   308.9312      -105.28766     -103.89003     -300.26461      27000          0.060238552  
      2890   304.52293     -105.30282     -103.92512      160.16641      27000          0.066493962  
      2900   250.20254     -105.0846      -103.95266     -417.26584      27000          0.074660418  
      2910   286.63503     -105.2733      -103.97654      53.842493      27000          0.075282482  
      2920   284.86806     -105.28336     -103.99458     -344.7342       27000          0.060987304  
      2930   275.59641     -105.25357     -104.00674     -398.63667      27000          0.069238638  
      2940   265.37592     -105.21599     -104.0154      -27.791849      27000          0.065683334  
      2950   245.62399     -105.12669     -104.01546     -537.23654      27000          0.072856841  
      2960   276.12949     -105.26293     -104.01369     -37.864614      27000          0.060428     
      2970   249.70752     -105.13869     -104.00899     -455.83776      27000          0.066662106  
      2980   262.78285     -105.19178     -104.00293     -56.48153       27000          0.058588961  
      2990   294.12247     -105.3259      -103.99526     -224.18611      27000          0.065019636  
      3000   321.78663     -105.44227     -103.98647     -219.25337      27000          0.05864343   
      3010   324.1947      -105.44456     -103.97787     -158.67807      27000          0.063033112  
      3020   338.67435     -105.50614     -103.97394     -161.66629      27000          0.054021406  
      3030   325.39021     -105.44109     -103.96899     -81.370979      27000          0.057607478  
      3040   339.00547     -105.50303     -103.96934     -42.695166      27000          0.047024478  
      3050   321.0109      -105.42338     -103.9711      -5.1683106      27000          0.062575656  
      3060   340.53936     -105.52217     -103.98154     -1.2697563      27000          0.0549053    
      3070   352.51938     -105.5867      -103.99186      8.2059921      27000          0.062580308  
      3080   317.67461     -105.442       -104.0048       105.86085      27000          0.056655433  
      3090   304.19962     -105.3967      -104.02047      287.2534       27000          0.055195128  
      3100   296.15497     -105.37459     -104.03475      59.276173      27000          0.061063681  
      3110   289.10953     -105.35685     -104.04888      369.51175      27000          0.053951867  
      3120   284.62744     -105.34986     -104.06218      84.50951       27000          0.058934175  
      3130   266.76397     -105.28337     -104.07651      374.10777      27000          0.051788858  
      3140   273.07149     -105.3265      -104.09109      77.677342      27000          0.061062974  
      3150   327.26133     -105.58719     -104.10663      319.48673      27000          0.066032042  
      3160   308.38333     -105.51995     -104.1248       57.982792      27000          0.056168981  
      3170   293.73969     -105.47302     -104.14411      160.53256      27000          0.068225586  
      3180   288.93344     -105.46903     -104.16186      234.45668      27000          0.055045132  
      3190   291.76726     -105.50228     -104.18229     -50.831373      27000          0.060312768  
      3200   289.68659     -105.51694     -104.20637      239.14075      27000          0.066826802  
      3210   274.61224     -105.47412     -104.23174     -104.23555      27000          0.05604373   
      3220   282.49068     -105.54172     -104.2637       178.61652      27000          0.064946046  
      3230   246.82466     -105.41463     -104.29797     -81.099049      27000          0.060311445  
      3240   303.63228     -105.7108      -104.33713      38.64251       27000          0.055763147  
      3250   301.70232     -105.74068     -104.37574     -111.81728      27000          0.064801131  
      3260   230.8224      -105.45738     -104.41312     -57.967363      27000          0.059057233  
      3270   250.77451     -105.59289     -104.45836     -77.804215      27000          0.065456759  
      3280   251.60761     -105.64254     -104.50425     -148.69962      27000          0.053687697  
      3290   247.58099     -105.66658     -104.5465      -91.229861      27000          0.06379181   
      3300   256.67813     -105.74801     -104.58677     -176.71155      27000          0.057024942  
      3310   253.28761     -105.77317     -104.62727     -124.11386      27000          0.05609061   
      3320   245.42357     -105.77121     -104.66089     -124.96197      27000          0.056425785  
      3330   261.36267     -105.8708      -104.68837     -170.99142      27000          0.051283319  
      3340   262.08598     -105.89708     -104.71138     -79.261844      27000          0.058404145  
      3350   216.92008     -105.70897     -104.7276      -87.630639      27000          0.054842997  
      3360   214.31109     -105.70814     -104.73857     -195.5795       27000          0.05599338   
      3370   222.9189      -105.75421     -104.7457       42.607151      27000          0.052646554  
      3380   206.29888     -105.67945     -104.74614     -225.46197      27000          0.051726571  
      3390   236.61286     -105.81236     -104.7419       27.18818       27000          0.058481446  
      3400   257.01619     -105.89425     -104.73148     -102.70326      27000          0.052678036  
      3410   258.05443     -105.88327     -104.7158      -24.321683      27000          0.055317173  
      3420   261.9815      -105.87857     -104.69334      28.60072       27000          0.054711261  
      3430   221.67637     -105.66963     -104.66674     -39.356158      27000          0.060665479  
      3440   240.72138     -105.72496     -104.63591      73.410569      27000          0.057370651  
      3450   275.43811     -105.84523     -104.59912     -62.816533      27000          0.064810417  
      3460   273.04456     -105.79541     -104.56013      65.978595      27000          0.056876942  
      3470   254.30063     -105.6739      -104.52342     -51.73589       27000          0.06766954   
      3480   292.16714     -105.80681     -104.48501      145.46094      27000          0.0668088    
      3490   289.77671     -105.7538      -104.44282     -17.79638       27000          0.068292332  
      3500   253.92115     -105.55448     -104.40572      130.61657      27000          0.064918889  
      3510   265.2445      -105.56989     -104.36989      136.90595      27000          0.083174665  
      3520   293.44678     -105.66678     -104.33919      89.298416      27000          0.066841465  
      3530   265.75573     -105.51398     -104.31167      143.17582      27000          0.074648827  
      3540   320.74928     -105.74094     -104.28984      51.604404      27000          0.077897706  
      3550   319.56656     -105.71716     -104.27141      156.38265      27000          0.068710697  
      3560   295.06917     -105.58956     -104.25464      70.316715      27000          0.0790789    
      3570   306.20667     -105.6257      -104.24039      85.038918      27000          0.090520398  
      3580   300.93537     -105.59124     -104.22977      166.25904      27000          0.065419536  
      3590   295.3777      -105.55802     -104.2217       105.02888      27000          0.080230767  
      3600   306.60083     -105.60134     -104.21425      92.564239      27000          0.062359563  
      3610   332.10073     -105.71364     -104.21118      166.31492      27000          0.095779751  
      3620   283.68207     -105.49283     -104.20942     -41.386452      27000          0.082559515  
      3630   290.28285     -105.52201     -104.20874      220.31707      27000          0.063458106  
      3640   333.2711      -105.71683     -104.20907      5.5608948      27000          0.060956164  
      3650   290.29564     -105.52271     -104.20938     -27.584063      27000          0.11232632   
      3660   311.9365      -105.62298     -104.21175      77.383841      27000          0.091162212  
      3670   302.30354     -105.57939     -104.21174     -99.216556      27000          0.055402657  
      3680   282.18431     -105.48637     -104.20973      35.864973      27000          0.067427349  
      3690   288.94416     -105.51376     -104.20654     -167.37575      27000          0.055716906  
      3700   297.30057     -105.54886     -104.20384     -123.97328      27000          0.051837568  
      3710   270.75813     -105.42317     -104.19824     -46.306046      27000          0.052871862  
      3720   288.28283     -105.4952      -104.19098     -213.02712      27000          0.078664811  
      3730   266.85353     -105.38821     -104.18093     -114.13687      27000          0.075414064  
      3740   294.20772     -105.50387     -104.17285     -177.27764      27000          0.061557179  
      3750   277.66901     -105.41821     -104.16201     -217.96231      27000          0.070818954  
      3760   275.58231     -105.39566     -104.1489      -8.503076       27000          0.075780748  
      3770   298.15525     -105.48167     -104.13278     -307.38356      27000          0.057569603  
      3780   261.88702     -105.29877     -104.11396     -11.747408      27000          0.039813487  
      3790   279.63389     -105.35726     -104.09217     -147.44864      27000          0.033186176  
      3800   251.59677     -105.20278     -104.06453     -70.32191       27000          0.045550803  
      3810   272.1433      -105.26097     -104.02976     -72.583462      27000          0.070201324  
      3820   228.87793     -105.02476     -103.98929     -61.885797      27000          0.062905699  
      3830   250.1446      -105.07359     -103.94191     -7.4156376      27000          0.078918819  
      3840   321.22026     -105.34459     -103.89135     -2.3990554      27000          0.071395783  
      3850   298.73507     -105.1846      -103.83309     -112.1171       27000          0.061527714  
      3860   311.46186     -105.187       -103.77791      19.894568      27000          0.050617135  
      3870   335.51966     -105.24679     -103.72887     -38.277722      27000          0.037128449  
      3880   343.29185     -105.23653     -103.68344      154.43956      27000          0.033132606  
      3890   354.94325     -105.24976     -103.64396     -54.101709      27000          0.053057922  
      3900   331.03963     -105.11527     -103.61761      226.47352      27000          0.078799322  
      3910   370.93856     -105.27691     -103.59875      107.15891      27000          0.053205761  
      3920   340.73561     -105.12523     -103.58371      90.217149      27000          0.052004183  
      3930   342.83622     -105.12878     -103.57775      264.83228      27000          0.056200192  
      3940   317.63732     -105.01401     -103.57698     -16.480135      27000          0.044177236  
      3950   325.41509     -105.04869     -103.57648      208.87558      27000          0.05419771   
      3960   360.33895     -105.21251     -103.5823       164.82249      27000          0.050265737  
      3970   336.35817     -105.11388     -103.59216      105.96395      27000          0.085621829  
      3980   295.46857     -104.94053     -103.6038       184.59295      27000          0.075677636  
      3990   273.85739     -104.85237     -103.61341      72.680727      27000          0.052563495  
      4000   275.00243     -104.86911     -103.62497      95.400378      27000          0.061002454  
      4010   262.05519     -104.81603     -103.63046      108.75574      27000          0.081963587  
      4020   312.22132     -105.05293     -103.64041     -9.5444863      27000          0.066970547  
      4030   263.80786     -104.83637     -103.64287     -15.102393      27000          0.058082755  
      4040   289.17129     -104.95326     -103.64502      61.929347      27000          0.071769915  
      4050   308.85296     -105.04258     -103.64529     -271.83533      27000          0.074523216  
      4060   303.58794     -105.02069     -103.64722      47.480618      27000          0.068062092  
      4070   306.91129     -105.0393      -103.6508      -321.2755       27000          0.055392769  
      4080   312.46759     -105.0674      -103.65377     -57.186934      27000          0.060658667  
      4090   287.29561     -104.95383     -103.65407     -164.99281      27000          0.048092152  
      4100   267.35132     -104.86561     -103.65608     -285.0312       27000          0.061757289  
      4110   306.43586     -105.04644     -103.66009     -88.245758      27000          0.072009653  
      4120   352.07154     -105.26389     -103.67108     -355.33017      27000          0.073554937  
      4130   373.43804     -105.37166     -103.68219     -118.82137      27000          0.066830655  
      4140   360.14421     -105.32532     -103.69599     -201.81196      27000          0.053058847  
      4150   326.57795     -105.19279     -103.71531     -257.07838      27000          0.067019817  
      4160   322.06468     -105.20588     -103.74882     -0.063672679    27000          0.061194151  
      4170   325.009       -105.25689     -103.78651     -268.54098      27000          0.078718777  
      4180   353.51492     -105.42951     -103.83017      83.259572      27000          0.068404293  
      4190   305.53166     -105.25822     -103.87596     -169.76213      27000          0.049879411  
      4200   289.96531     -105.23575     -103.92392      116.95898      27000          0.063212507  
      4210   255.23028     -105.12817     -103.97348      43.054342      27000          0.066342578  
      4220   265.40528     -105.22334     -104.02262     -15.657835      27000          0.07059457   
      4230   286.69016     -105.36987     -104.07285      198.26257      27000          0.053331035  
      4240   274.89124     -105.36498     -104.12134     -79.879885      27000          0.065433224  
      4250   266.81714     -105.37285     -104.16574      262.35016      27000          0.075324863  
      4260   241.37634     -105.29003     -104.19802     -36.91221       27000          0.061536849  
      4270   227.83426     -105.2553      -104.22455      250.9181       27000          0.081873344  
      4280   210.70406     -105.19832     -104.24508      77.216179      27000          0.065775981  
      4290   208.85259     -105.20236     -104.25749      134.23589      27000          0.060633193  
      4300   205.23108     -105.19171     -104.26322      273.37952      27000          0.077030171  
      4310   199.15983     -105.16401     -104.26299     -34.558433      27000          0.075480114  
      4320   246.19417     -105.37216     -104.25836      304.85918      27000          0.060480791  
      4330   225.01239     -105.26749     -104.24951      20.252633      27000          0.056706583  
      4340   226.27746     -105.26293     -104.23923      269.4427       27000          0.078363285  
      4350   225.78459     -105.24409     -104.22262     -67.696522      27000          0.077977397  
      4360   263.87737     -105.40352     -104.20971      325.3904       27000          0.059336665  
      4370   262.9102      -105.38371     -104.19428     -127.81378      27000          0.072106784  
      4380   277.61339     -105.43587     -104.17991      152.19237      27000          0.084341615  
      4390   289.891       -105.47457     -104.16307     -10.838674      27000          0.076116009  
      4400   306.57868     -105.53465     -104.14766     -85.401368      27000          0.061533369  
      4410   334.79571     -105.64603     -104.13138      100.88969      27000          0.062652651  
      4420   292.03675     -105.43588     -104.11468     -261.13462      27000          0.074176168  
      4430   304.11824     -105.47666     -104.1008       166.56893      27000          0.074902794  
      4440   291.21387     -105.40791     -104.09042     -299.89945      27000          0.058551278  
      4450   322.72458     -105.54399     -104.08395      18.652841      27000          0.070432241  
      4460   325.5687      -105.55406     -104.08115     -222.98043      27000          0.084603079  
      4470   324.71351     -105.5511      -104.08206     -272.62612      27000          0.081674984  
      4480   312.27027     -105.49422     -104.08148      0.18809372     27000          0.068830063  
      4490   263.0599      -105.2682      -104.07809     -338.58922      27000          0.06909743   
      4500   235.11147     -105.13645     -104.07278      48.140903      27000          0.076070904  
      4510   247.07757     -105.18358     -104.06577     -270.30194      27000          0.078697954  
      4520   293.02374     -105.38265     -104.05698     -84.535852      27000          0.078858611  
      4530   273.77966     -105.27866     -104.04006     -137.0884       27000          0.075448851  
      4540   255.92417     -105.18025     -104.02242     -106.83162      27000          0.081245115  
      4550   271.95777     -105.23142     -104.00105      36.498036      27000          0.094527153  
      4560   297.48        -105.32019     -103.97435     -230.8538       27000          0.090235418  
      4570   334.963       -105.46191     -103.9465       28.161628      27000          0.074925607  
      4580   338.50251     -105.45344     -103.92202     -58.18669       27000          0.086014439  
      4590   311.23507     -105.30505     -103.89699     -29.476504      27000          0.089226015  
      4600   296.55435     -105.21144     -103.8698       93.728622      27000          0.10032798   
      4610   330.11982     -105.33921     -103.84572      37.667714      27000          0.090095385  
      4620   361.12794     -105.45874     -103.82496      94.134551      27000          0.086025682  
      4630   378.33462     -105.51732     -103.8057       173.6818       27000          0.096335294  
      4640   327.01142     -105.26885     -103.78941      227.22266      27000          0.092093707  
      4650   316.69424     -105.20603     -103.77327      218.25519      27000          0.10452446   
      4660   337.23886     -105.28633     -103.76062      315.2943       27000          0.087884805  
      4670   323.63698     -105.21888     -103.75471      128.13111      27000          0.088761418  
      4680   351.57256     -105.34365     -103.7531       369.16245      27000          0.097310926  
      4690   330.94745     -105.24977     -103.75253      52.686941      27000          0.095354529  
      4700   350.47298     -105.34548     -103.7599       353.42564      27000          0.094762207  
      4710   378.6785      -105.48743     -103.77425      87.902992      27000          0.095077893  
      4720   398.22268     -105.59969     -103.79808      185.16867      27000          0.083872304  
      4730   378.73645     -105.54386     -103.83041      90.98055       27000          0.079964835  
      4740   348.03435     -105.44943     -103.87488      107.31681      27000          0.10189726   
      4750   308.43629     -105.33045     -103.93505      34.96966       27000          0.077145614  
      4760   289.45045     -105.30857     -103.99907      20.985662      27000          0.070918922  
      4770   282.38404     -105.34257     -104.06503      34.779502      27000          0.073873064  
      4780   255.20765     -105.28229     -104.12771     -139.75991      27000          0.077929658  
      4790   257.23318     -105.34563     -104.18188      97.983774      27000          0.084720161  
      4800   256.74076     -105.39059     -104.22906     -139.27048      27000          0.068218804  
      4810   257.85437     -105.43328     -104.26672     -62.769707      27000          0.057784991  
      4820   235.92329     -105.36087     -104.29353      64.760253      27000          0.071606938  
      4830   211.96046     -105.26995     -104.31102     -286.82482      27000          0.061860356  
      4840   231.73062     -105.37232     -104.32394      198.15059      27000          0.052283401  
      4850   193.02758     -105.20527     -104.33199     -368.44984      27000          0.05605447   
      4860   238.15719     -105.41234     -104.33489      125.49111      27000          0.053058728  
      4870   252.08244     -105.47268     -104.33224     -191.33563      27000          0.071056759  
      4880   263.54174     -105.51858     -104.32629     -135.09522      27000          0.059303661  
      4890   251.02604     -105.45023     -104.31456     -3.6568499      27000          0.053134008  
      4900   238.77374     -105.38114     -104.3009      -130.88544      27000          0.050847395  
      4910   271.11829     -105.51034     -104.28377     -49.852689      27000          0.050251422  
      4920   307.12372     -105.65495     -104.26549     -119.94805      27000          0.05439265   
      4930   319.65091     -105.69289     -104.24676     -41.819375      27000          0.055985317  
      4940   278.57606     -105.48822     -104.22791     -33.401349      27000          0.05276984   
      4950   302.56594     -105.57896     -104.21012     -61.884749      27000          0.048851032  
      4960   332.24594     -105.69449     -104.19137      1.3484936      27000          0.046623167  
      4970   309.90876     -105.57435     -104.17229     -119.13396      27000          0.050382939  
      4980   297.93628     -105.50482     -104.15693      166.60778      27000          0.049005645  
      4990   269.76033     -105.36275     -104.14232     -54.0374        27000          0.049612838  
      5000   276.19482     -105.37607     -104.12654      171.067        27000          0.049762464  
      5010   270.61076     -105.33428     -104.11001      112.77552      27000          0.052765565  
      5020   283.74405     -105.37564     -104.09195     -58.166212      27000          0.049710253  
      5030   293.15731     -105.3964      -104.07012      162.21359      27000          0.046693083  
      5040   282.76654     -105.3281      -104.04883     -71.576499      27000          0.086822528  
      5050   305.26592     -105.4058      -104.02474      57.342465      27000          0.060156644  
      5060   315.388       -105.42408     -103.99723     -90.690825      27000          0.045267943  
      5070   318.76833     -105.41189     -103.96975      47.194316      27000          0.057706156  
      5080   313.17267     -105.35968     -103.94286      20.108978      27000          0.050990099  
      5090   344.25136     -105.47485     -103.91742     -57.499911      27000          0.055402951  
      5100   315.2857      -105.31874     -103.89235     -23.8383        27000          0.07113226   
      5110   277.21313     -105.12266     -103.86851     -11.836357      27000          0.069060873  
      5120   295.28823     -105.1765      -103.84058      7.6834558      27000          0.0631884    
      5130   286.25685     -105.10127     -103.80621     -59.368037      27000          0.070388036  
      5140   293.86142     -105.10096     -103.7715       132.73945      27000          0.061128893  
      5150   325.79857     -105.20517     -103.73122     -88.207093      27000          0.074557924  
      5160   362.82557     -105.31953     -103.67807      95.341778      27000          0.081550379  
      5170   339.55507     -105.15436     -103.61817     -94.907022      27000          0.052175867  
      5180   356.42989     -105.16777     -103.55524      152.11496      27000          0.056091968  
      5190   383.93056     -105.2223      -103.48535     -53.371445      27000          0.046763062  
      5200   387.71747     -105.16744     -103.41336      91.063036      27000          0.047717554  
      5210   392.60729     -105.12048     -103.34429      132.25869      27000          0.07268779   
      5220   401.16289     -105.10362     -103.28871     -72.651789      27000          0.073119852  
      5230   409.31295     -105.09389     -103.24211      316.79638      27000          0.053324767  
      5240   371.12986     -104.88746     -103.20843     -115.02081      27000          0.061205916  
      5250   358.86451     -104.80721     -103.18367      268.62465      27000          0.041137018  
      5260   393.58791     -104.94639     -103.16576      104.74734      27000          0.066787878  
      5270   389.99619     -104.92326     -103.15887      63.245416      27000          0.067739308  
      5280   389.58096     -104.92615     -103.16365      292.25202      27000          0.069649467  
      5290   374.56672     -104.87377     -103.17919     -126.79765      27000          0.061536561  
      5300   392.23543     -104.9841      -103.20959      270.03039      27000          0.070059696  
      5310   390.38045     -105.02077     -103.25464     -54.012535      27000          0.076845636  
      5320   419.20188     -105.2142      -103.31769      110.77846      27000          0.07617262   
      5330   389.3554      -105.15488     -103.39339      51.106626      27000          0.050120771  
      5340   364.15433     -105.1264      -103.47892     -95.581485      27000          0.040931169  
      5350   358.95478     -105.19839     -103.57444      126.16         27000          0.043317855  
      5360   314.99686     -105.08653     -103.66145     -195.39182      27000          0.049706814  
      5370   295.59631     -105.07176     -103.73445      151.37073      27000          0.079267683  
      5380   336.61357     -105.31865     -103.79578     -229.28721      27000          0.067733876  
      5390   331.79578     -105.34916     -103.84808      72.035135      27000          0.06260632   
      5400   325.36891     -105.36076     -103.88876     -227.28595      27000          0.062360183  
      5410   309.37267     -105.3159      -103.91626     -56.612769      27000          0.073350203  
      5420   333.47178     -105.44555     -103.93689     -179.2072       27000          0.063244511  
      5430   359.23491     -105.58139     -103.95617     -214.77675      27000          0.04783118   
      5440   306.33252     -105.36141     -103.97553      30.646004      27000          0.044396921  
      5450   289.65656     -105.30353     -103.99309     -270.43947      27000          0.034409869  
      5460   306.00403     -105.39564     -104.01125     -33.970111      27000          0.044160376  
      5470   303.35323     -105.40201     -104.02961     -278.70572      27000          0.028726319  
      5480   290.12695     -105.35584     -104.04328     -111.97282      27000          0.027842907  
      5490   288.91651     -105.36486     -104.05777     -194.29739      27000          0.047367084  
      5500   310.57284     -105.47692     -104.07185     -151.49284      27000          0.034836337  
      5510   313.24012     -105.50274     -104.08561     -58.881981      27000          0.033269973  
      5520   256.05654     -105.25584     -104.09742     -226.32512      27000          0.043948303  
      5530   268.37036     -105.32348     -104.10934     -24.574084      27000          0.035288903  
      5540   287.02245     -105.4179      -104.11938     -191.49345      27000          0.031489915  
      5550   295.39772     -105.46491     -104.1285      -47.967435      27000          0.032078927  
      5560   275.78006     -105.38353     -104.13587     -162.50399      27000          0.035790687  
      5570   259.21168     -105.31398     -104.14128      85.764353      27000          0.042256146  
      5580   251.33447     -105.27911     -104.14205     -191.60363      27000          0.048425666  
      5590   258.7575      -105.31228     -104.14163      66.593984      27000          0.048561808  
      5600   261.07342     -105.31754     -104.13641      8.3231407      27000          0.048346308  
      5610   270.23078     -105.3515      -104.12895      2.8597163      27000          0.044558277  
      5620   299.96933     -105.47597     -104.11888     -8.0314453      27000          0.045282765  
      5630   272.02421     -105.33708     -104.10642      31.526001      27000          0.041964819  
      5640   251.31186     -105.22805     -104.09109      87.798505      27000          0.046367082  
      5650   304.48639     -105.44948     -104.07195      11.041913      27000          0.048908734  
      5660   304.19568     -105.42545     -104.04924      53.924596      27000          0.041094309  
      5670   312.44855     -105.44069     -104.02714      120.93715      27000          0.050748669  
      5680   306.0531      -105.3899      -104.00529      93.501754      27000          0.045724172  
      5690   280.24918     -105.24994     -103.98207      168.97608      27000          0.042476611  
      5700   253.84502     -105.10391     -103.95549      119.00235      27000          0.068241985  
      5710   286.85487     -105.22583     -103.92807      137.24518      27000          0.057401961  
      5720   302.9574      -105.26829     -103.89768      210.12841      27000          0.054879594  
      5730   278.69656     -105.12511     -103.86426      145.84835      27000          0.060671663  
      5740   329.01247     -105.31789     -103.8294       231.72972      27000          0.058001175  
      5750   340.98748     -105.3342      -103.79154      29.464403      27000          0.049356909  
      5760   305.87861     -105.13881     -103.75498      299.31125      27000          0.077148277  
      5770   321.28654     -105.17379     -103.72026      76.51861       27000          0.042835314  
      5780   345.78435     -105.25611     -103.69175      110.64902      27000          0.040286709  
      5790   328.37859     -105.14991     -103.66429      182.74666      27000          0.053325163  
      5800   334.50776     -105.15697     -103.64362     -12.031033      27000          0.065125041  
      5810   371.8308      -105.3083      -103.6261       106.13304      27000          0.032663989  
      5820   306.4131      -104.99824     -103.61199      40.2159        27000          0.049834706  
      5830   343.25667     -105.15568     -103.60275      32.455604      27000          0.061220591  
      5840   376.33689     -105.29687     -103.59428      52.214902      27000          0.042493464  
      5850   362.9572      -105.23105     -103.589        10.332342      27000          0.052428965  
      5860   321.6249      -105.04709     -103.59202      123.96533      27000          0.062058966  
      5870   313.16034     -105.01777     -103.601        12.023947      27000          0.059085363  
      5880   297.29813     -104.95816     -103.61315      95.539043      27000          0.053552981  
      5890   275.4146      -104.87116     -103.62515      165.80359      27000          0.067501046  
      5900   294.59946     -104.97191     -103.63911     -69.077002      27000          0.068255474  
      5910   356.28605     -105.267       -103.65513      49.367333      27000          0.056078496  
      5920   295.11601     -105.0076      -103.67246     -148.54604      27000          0.052722755  
      5930   270.33742     -104.91713     -103.6941       13.237136      27000          0.052151506  
      5940   278.80429     -104.98538     -103.72404     -219.16467      27000          0.056242963  
      5950   282.32592     -105.03714     -103.75987     -48.045298      27000          0.066325843  
      5960   284.64855     -105.08659     -103.79881     -221.28476      27000          0.068069699  
      5970   306.47828     -105.22505     -103.83851     -179.8985       27000          0.055755536  
      5980   273.34076     -105.11541     -103.87878     -145.8479       27000          0.054392145  
      5990   232.29987     -104.96853     -103.91758     -211.97886      27000          0.055755936  
      6000   228.14644     -104.98418     -103.95202     -72.627911      27000          0.052718539  
      6010   249.68758     -105.11557     -103.98596     -192.31895      27000          0.056091823  
      6020   274.65159     -105.26418     -104.02163     -122.13647      27000          0.041498986  
      6030   275.55421     -105.30197     -104.05534     -269.70924      27000          0.051567127  
      6040   279.3553      -105.35144     -104.0876      -109.56564      27000          0.045057491  
      6050   277.98827     -105.37412     -104.11647     -194.37309      27000          0.051809064  
      6060   234.02573     -105.19848     -104.13972     -95.626371      27000          0.050202096  
      6070   235.1348      -105.22355     -104.15977     -122.53898      27000          0.074633153  
      6080   257.76739     -105.34117     -104.175        20.359838      27000          0.057561992  
      6090   239.55293     -105.26759     -104.18383     -163.18981      27000          0.057050887  
      6100   214.22241     -105.15797     -104.1888       185.47736      27000          0.053055927  
      6110   176.44385     -104.98454     -104.18629      0.22701031     27000          0.093186781  
      6120   242.22752     -105.27726     -104.18139      151.02989      27000          0.056131434  
      6130   276.40281     -105.41974     -104.16926      58.902259      27000          0.062725917  
      6140   253.63931     -105.29927     -104.15178      125.78092      27000          0.075437929  
      6150   279.34949     -105.39434     -104.13053      156.24075      27000          0.063469005  
      6160   267.05311     -105.30867     -104.10049      33.579996      27000          0.061113309  
      6170   267.56668     -105.27526     -104.06476      301.54719      27000          0.071913233  
      6180   263.5128      -105.21643     -104.02427     -118.19734      27000          0.056506511  
      6190   282.04632     -105.258       -103.98199      345.08535      27000          0.055825017  
      6200   290.55579     -105.2453      -103.9308      -80.466724      27000          0.079730962  
      6210   315.92481     -105.3093      -103.88003      282.5046       27000          0.068126095  
      6220   314.59963     -105.25192     -103.82864      47.863067      27000          0.088753729  
      6230   343.59743     -105.33867     -103.7842       162.99714      27000          0.06525851   
      6240   350.15967     -105.32913     -103.74497      178.61387      27000          0.071146547  
      6250   357.45993     -105.33225     -103.71507      5.7858524      27000          0.074309985  
      6260   387.40042     -105.44376     -103.69112      206.48404      27000          0.081336895  
      6270   365.29545     -105.32657     -103.67393      41.982442      27000          0.12910842   
      6280   340.23301     -105.20108     -103.66183      102.47587      27000          0.067204209  
      6290   321.82806     -105.10986     -103.65388     -9.085063       27000          0.093724574  
      6300   339.27119     -105.18942     -103.65452      119.83171      27000          0.070127031  
      6310   342.81461     -105.20908     -103.65816     -38.840223      27000          0.080431105  
      6320   330.40528     -105.15997     -103.66518     -7.6207061      27000          0.094527667  
      6330   357.57067     -105.29534     -103.67766     -43.875651      27000          0.074643139  
      6340   381.51121     -105.42278     -103.69678     -93.447496      27000          0.095573904  
      6350   388.82102     -105.48175     -103.72268     -190.51153      27000          0.06044335   
      6360   360.06417     -105.37803     -103.74907     -142.3213       27000          0.087716335  
      6370   376.12944     -105.47757     -103.77592     -173.20514      27000          0.076333653  
      6380   377.18057     -105.51103     -103.80463     -193.59926      27000          0.066564034  
      6390   384.99029     -105.58089     -103.83915     -184.19187      27000          0.073488307  
      6400   344.03765     -105.42873     -103.87227     -170.26182      27000          0.065404352  
      6410   336.90778     -105.42992     -103.90571     -160.68994      27000          0.066554451  
      6420   367.71019     -105.60627     -103.94271     -62.524877      27000          0.05959621   
      6430   350.35683     -105.56402     -103.97897     -241.95554      27000          0.068897835  
      6440   347.23101     -105.58571     -104.0148      -33.849577      27000          0.068109631  
      6450   338.93106     -105.58395     -104.05059     -189.65743      27000          0.086453993  
      6460   304.40834     -105.46084     -104.08366      69.858517      27000          0.052684882  
      6470   292.20796     -105.436       -104.11403      20.886159      27000          0.05708944   
      6480   292.1466      -105.4642      -104.1425      -34.42436       27000          0.10070337   
      6490   305.02634     -105.54847     -104.16849      127.83933      27000          0.092627826  
      6500   302.70576     -105.5591      -104.18963     -33.01544       27000          0.061730526  
      6510   289.2244      -105.51394     -104.20546      161.39161      27000          0.057319997  
      6520   245.88107     -105.32825     -104.21586      50.490744      27000          0.097418785  
      6530   233.38507     -105.27707     -104.22121      219.46308      27000          0.096816212  
      6540   233.69897     -105.28239     -104.22511      103.66279      27000          0.067986963  
      6550   230.98417     -105.26961     -104.22461      178.62124      27000          0.072529612  
      6560   250.19639     -105.35246     -104.22054      43.294152      27000          0.10424246   
      6570   277.90142     -105.4711      -104.21384      93.023473      27000          0.082039578  
      6580   262.90192     -105.39214     -104.20274      75.900784      27000          0.10213945   
      6590   257.29878     -105.35013     -104.18609     -14.469137      27000          0.065300395  
      6600   303.97833     -105.54389     -104.16866      143.97792      27000          0.066860447  
      6610   309.16655     -105.54684     -104.14814     -235.7936       27000          0.10252885   
      6620   331.80691     -105.62879     -104.12766      146.02595      27000          0.065640233  
      6630   336.88542     -105.63253     -104.10842     -181.95732      27000          0.076738864  
      6640   321.85079     -105.54747     -104.09138      12.885145      27000          0.065462639  
      6650   300.3968      -105.43508     -104.07605     -35.032685      27000          0.058824072  
      6660   314.91212     -105.48699     -104.0623      -125.13981      27000          0.09079324   
      6670   307.01586     -105.43879     -104.04982     -46.967703      27000          0.060930641  
      6680   257.13941     -105.19868     -104.03535      15.550498      27000          0.069341428  
      6690   264.94612     -105.21558     -104.01694      83.117845      27000          0.065164615  
      6700   269.62567     -105.21361     -103.9938      -79.700141      27000          0.052815477  
      6710   248.39079     -105.08708     -103.96333      140.38369      27000          0.069324097  
      6720   259.74967     -105.10333     -103.92819      27.697183      27000          0.044429641  
      6730   289.43621     -105.19665     -103.88721      66.164548      27000          0.052989411  
      6740   309.97529     -105.24384     -103.84148      64.60175       27000          0.049437244  
      6750   315.87853     -105.21605     -103.78698      35.535983      27000          0.0546913    
      6760   346.92403     -105.29993     -103.73041      86.870624      27000          0.10871607   
      6770   335.96412     -105.19222     -103.67229     -26.757893      27000          0.059029814  
      6780   334.25065     -105.13089     -103.6187       182.50526      27000          0.076150333  
      6790   312.97147     -104.98245     -103.56654     -24.022903      27000          0.071529218  
      6800   306.19989     -104.90776     -103.52248      252.51028      27000          0.04086301   
      6810   345.60535     -105.05258     -103.48902     -94.405097      27000          0.073297504  
      6820   396.39853     -105.25676     -103.46341      223.5869       27000          0.056053267  
      6830   378.45598     -105.15281     -103.44063     -111.87372      27000          0.062851927  
      6840   351.4872      -105.0196      -103.42944      84.572698      27000          0.09559513   
      6850   351.29377     -105.01664     -103.42735      144.30053      27000          0.039364866  
      6860   380.83078     -105.15356     -103.43064     -159.1962       27000          0.083667807  
      6870   382.40066     -105.16748     -103.43746      197.31629      27000          0.07013632   
      6880   339.36236     -104.98599     -103.45067     -195.78616      27000          0.039314928  
      6890   364.73716     -105.12332     -103.47321      46.676829      27000          0.075901083  
      6900   411.87175     -105.36545     -103.5021      -91.456366      27000          0.045000411  
      6910   438.12509     -105.51782     -103.53569     -249.45187      27000          0.047448099  
      6920   414.23585     -105.4506      -103.57655     -37.721922      27000          0.070747763  
      6930   334.29862     -105.13022     -103.61782     -212.3948       27000          0.047400321  
      6940   345.29421     -105.22107     -103.65892     -5.7295835      27000          0.049074004  
      6950   315.05117     -105.12289     -103.69756     -202.44856      27000          0.08540353   
      6960   275.60705     -104.97646     -103.72958     -65.054703      27000          0.038782955  
      6970   297.65071     -105.10175     -103.75515     -114.02045      27000          0.068323253  
      6980   263.28549     -104.96526     -103.77412     -121.0151       27000          0.056552911  
      6990   287.00931     -105.08677     -103.78831      57.024309      27000          0.048797108  
      7000   298.78484     -105.14892     -103.79718     -248.13122      27000          0.064037362  
      7010   285.42369     -105.09619     -103.8049      -98.88562       27000          0.094633894  
      7020   311.94547     -105.22584     -103.81457     -135.86519      27000          0.048412281  
      7030   310.40567     -105.22827     -103.82397     -42.459686      27000          0.058869597  
      7040   361.08209     -105.4694      -103.83583     -165.5101       27000          0.078872518  
      7050   291.92776     -105.1676      -103.84689     -51.568341      27000          0.069489748  
      7060   324.32383     -105.32961     -103.86233      57.973662      27000          0.066307995  
      7070   279.6382      -105.14266     -103.87754     -81.96598       27000          0.076594085  
      7080   276.13274     -105.14029     -103.89104      270.50492      27000          0.054208592  
      7090   287.2563      -105.20363     -103.90405     -10.426222      27000          0.1069509    
      7100   283.52482     -105.19666     -103.91397      132.83334      27000          0.077685781  
      7110   269.54039     -105.13768     -103.91826      171.02603      27000          0.0653876    
      7120   247.36045     -105.03827     -103.91919      78.414296      27000          0.07775109   
      7130   238.38051     -104.99281     -103.91435      239.59052      27000          0.09207604   
      7140   266.50031     -105.11629     -103.91061      48.820232      27000          0.092887669  
      7150   268.35042     -105.11701     -103.90297      196.70754      27000          0.065756805  
      7160   296.89358     -105.23682     -103.89364      112.76419      27000          0.062922468  
      7170   299.9078      -105.2382      -103.88139      18.980198      27000          0.1034888    
      7180   324.82727     -105.33514     -103.86559      128.5314       27000          0.093854521  
      7190   336.43049     -105.37032     -103.84827     -0.6025753      27000          0.047868805  
      7200   299.9612      -105.18598     -103.82892      168.22377      27000          0.057109675  
      7210   340.92305     -105.35545     -103.81308     -56.112717      27000          0.058222032  
      7220   341.60696     -105.3436      -103.79813      60.367017      27000          0.078210388  
      7230   347.13081     -105.35611     -103.78565     -68.633671      27000          0.052848823  
      7240   319.63174     -105.21921     -103.77316      198.18057      27000          0.045451687  
      7250   302.93447     -105.13283     -103.76232     -169.32149      27000          0.060527599  
      7260   320.27885     -105.1998      -103.75083      123.5507       27000          0.042939108  
      7270   325.87402     -105.2127      -103.73841     -41.041552      27000          0.057680679  
      7280   296.24334     -105.06404     -103.72381     -230.48641      27000          0.075707895  
      7290   319.71699     -105.15424     -103.70781      0.069637518    27000          0.042473476  
      7300   325.63872     -105.16523     -103.692       -236.73467      27000          0.065823244  
      7310   371.50173     -105.35955     -103.67884     -168.87198      27000          0.060235123  
      7320   344.01245     -105.22237     -103.66602     -232.66286      27000          0.060398485  
      7330   358.40923     -105.27699     -103.6555      -274.62102      27000          0.060834561  
      7340   349.45111     -105.23056     -103.64961     -79.095384      27000          0.055013621  
      7350   309.52886     -105.0501      -103.64976     -263.23931      27000          0.078903881  
      7360   283.20752     -104.93245     -103.65119     -188.42924      27000          0.067525454  
      7370   279.94461     -104.91658     -103.65008     -101.48965      27000          0.083961361  
      7380   260.43635     -104.82598     -103.64774      28.164879      27000          0.058951672  
      7390   293.74587     -104.97304     -103.64411     -120.3883       27000          0.076441482  
      7400   294.13645     -104.96629     -103.63558      31.240518      27000          0.056101661  
      7410   333.94739     -105.13701     -103.62619     -142.89699      27000          0.058679888  
      7420   342.33461     -105.16414     -103.61538      158.09576      27000          0.05225231   
      7430   346.63693     -105.1755      -103.60728     -42.817089      27000          0.075408994  
      7440   347.50805     -105.17883     -103.60667      148.51481      27000          0.072670008  
      7450   366.56665     -105.27044     -103.61206      130.51386      27000          0.057668694  
      7460   348.19863     -105.19957     -103.62428      170.2778       27000          0.059405329  
      7470   346.33857     -105.21013     -103.64326      279.59967      27000          0.069791     
      7480   305.05316     -105.04586     -103.66577      206.41669      27000          0.052211577  
      7490   289.33635     -104.99608     -103.68709      412.69257      27000          0.04145515   
[...]
     98180   299.84893     -105.64824     -104.29169     -43.092712      27000          0.083876313  
     98190   284.1227      -105.59139     -104.30599      14.580122      27000          0.068434518  
     98200   273.5999      -105.55503     -104.31724     -88.975809      27000          0.080749707  
     98210   294.21381     -105.66282     -104.33176     -89.453841      27000          0.080389252  
     98220   303.40814     -105.71694     -104.34429     -94.506233      27000          0.067710234  
     98230   319.73548     -105.80458     -104.35807     -110.49039      27000          0.075431925  
     98240   302.31696     -105.73707     -104.36936     -65.184438      27000          0.079227525  
     98250   287.21467     -105.68296     -104.38357     -74.878695      27000          0.082506261  
     98260   275.50783     -105.64318     -104.39676     -86.169765      27000          0.079754286  
     98270   291.06602     -105.7301      -104.41329     -31.255751      27000          0.079435091  
     98280   289.52557     -105.73994     -104.4301      -79.442392      27000          0.076499596  
     98290   325.32528     -105.91782     -104.44602     -36.261034      27000          0.082120647  
     98300   295.99353     -105.79832     -104.45922     -46.118578      27000          0.068585156  
     98310   260.51085     -105.65303     -104.47445      73.935924      27000          0.084047888  
     98320   267.18254     -105.69837     -104.48961     -106.57112      27000          0.069348393  
     98330   289.2318      -105.81363     -104.50511      98.282353      27000          0.081684067  
     98340   281.60588     -105.79787     -104.52385     -46.687867      27000          0.067927905  
     98350   280.71316     -105.80858     -104.5386       99.389431      27000          0.07145071   
     98360   264.98876     -105.75048     -104.55165      10.313777      27000          0.076914659  
     98370   245.71897     -105.6742      -104.56254      68.256997      27000          0.056693558  
     98380   259.25755     -105.74826     -104.57536      10.521646      27000          0.077768859  
     98390   230.06224     -105.61894     -104.57812      93.261813      27000          0.065186007  
     98400   207.41005     -105.51868     -104.58033      135.83831      27000          0.068578233  
     98410   177.3586      -105.3774      -104.57501     -31.355416      27000          0.059508884  
     98420   214.73167     -105.53465     -104.56318      245.17881      27000          0.056896479  
     98430   201.3827      -105.45525     -104.54417     -74.597759      27000          0.069583909  
     98440   217.04863     -105.49864     -104.51669      260.56344      27000          0.057535735  
     98450   212.70385     -105.44246     -104.48016     -81.708095      27000          0.069430774  
     98460   241.41974     -105.53033     -104.43812      9.3072826      27000          0.053883825  
     98470   290.44497     -105.69887     -104.38486      20.868292      27000          0.065133166  
     98480   296.79251     -105.66513     -104.32241     -25.24286       27000          0.073315425  
     98490   328.85404     -105.74786     -104.26009      40.328903      27000          0.062439889  
     98500   294.02319     -105.52948     -104.19929     -106.75286      27000          0.06853095   
     98510   283.26726     -105.43471     -104.15318     -41.540777      27000          0.057556051  
     98520   320.43903     -105.56489     -104.11519     -46.855655      27000          0.059501368  
     98530   339.59754     -105.61551     -104.07914     -153.58367      27000          0.067731378  
     98540   331.13296     -105.54473     -104.04665      75.951322      27000          0.063547399  
     98550   359.64925     -105.65247     -104.02538     -158.77574      27000          0.069154338  
     98560   302.67012     -105.37454     -104.00523     -71.443905      27000          0.057617736  
     98570   268.10814     -105.20198     -103.98903      16.469461      27000          0.065100302  
     98580   319.15351     -105.41981     -103.97592     -111.99511      27000          0.066610859  
     98590   321.02545     -105.41399     -103.96163      86.662565      27000          0.060056537  
     98600   323.52664     -105.41361     -103.94994     -33.496236      27000          0.07695144   
     98610   283.36892     -105.22017     -103.93818     -51.473696      27000          0.074501569  
     98620   290.30758     -105.23996     -103.92658      80.844698      27000          0.074232083  
     98630   270.23453     -105.13464     -103.91208     -88.12161       27000          0.064347067  
     98640   282.39872     -105.17587     -103.89827      145.88963      27000          0.07130907   
     98650   340.58985     -105.42346     -103.8826      -111.26513      27000          0.076212108  
     98660   324.46065     -105.33617     -103.86828      33.99979       27000          0.080178343  
     98670   353.49657     -105.45633     -103.85708     -11.066537      27000          0.083695233  
     98680   330.02368     -105.33857     -103.84551     -33.207111      27000          0.060178184  
     98690   312.91382     -105.25163     -103.83597      170.15337      27000          0.075153647  
     98700   350.41024     -105.42045     -103.83516     -196.14651      27000          0.079347618  
     98710   371.97641     -105.5219      -103.83904      110.12995      27000          0.080321732  
     98720   341.84025     -105.39297     -103.84644     -199.13436      27000          0.074163025  
     98730   309.45752     -105.25964     -103.85962      140.05325      27000          0.060744552  
     98740   327.67817     -105.36007     -103.87762     -137.54877      27000          0.097307381  
     98750   332.33991     -105.40205     -103.89851      106.1324       27000          0.073677149  
     98760   275.39207     -105.16356     -103.91766      30.538159      27000          0.078118744  
     98770   304.50211     -105.31617     -103.93857      25.465229      27000          0.067260737  
     98780   339.55405     -105.49791     -103.96173      86.550571      27000          0.072899054  
     98790   274.67702     -105.22718     -103.98451      10.106206      27000          0.083391477  
     98800   252.75466     -105.154       -104.01051      279.50103      27000          0.063104433  
     98810   213.16616     -104.99649     -104.0321      -76.398032      27000          0.072696705  
     98820   259.37943     -105.22639     -104.05293      293.46616      27000          0.073731105  
     98830   254.25887     -105.22366     -104.07336     -125.16795      27000          0.074258883  
     98840   244.89545     -105.19907     -104.09114      242.40381      27000          0.056378754  
     98850   267.32623     -105.32062     -104.1112      -12.831634      27000          0.07328193   
     98860   247.09261     -105.2459      -104.12803      13.733956      27000          0.073712483  
     98870   245.65889     -105.25489     -104.1435       91.818289      27000          0.078716242  
     98880   291.57111     -105.48109     -104.16199     -32.938252      27000          0.061768869  
     98890   299.59804     -105.53444     -104.17903      67.180101      27000          0.072827278  
     98900   298.57765     -105.54637     -104.19557     -45.513987      27000          0.078120903  
     98910   298.54515     -105.56638     -104.21573      48.945076      27000          0.066749333  
     98920   244.58147     -105.33933     -104.23282     -80.957976      27000          0.078728511  
     98930   226.81833     -105.27512     -104.24897      132.33357      27000          0.061827305  
     98940   268.23841     -105.47977     -104.26623     -67.774637      27000          0.072896812  
     98950   240.4129      -105.36722     -104.27956      21.417238      27000          0.068999804  
     98960   236.61745     -105.36288     -104.2924       19.986011      27000          0.064905282  
     98970   295.81134     -105.64437     -104.30609     -27.703999      27000          0.072066216  
     98980   276.61565     -105.56652     -104.31508     -84.362822      27000          0.068733822  
     98990   236.85621     -105.39258     -104.32102      18.247052      27000          0.070559024  
     99000   229.31526     -105.35906     -104.32162      58.497517      27000          0.07052188   
     99010   207.94716     -105.25802     -104.31724     -186.26395      27000          0.071037459  
     99020   231.86342     -105.35744     -104.30846      146.49936      27000          0.068664461  
     99030   274.29291     -105.53666     -104.29573     -188.80878      27000          0.065110607  
     99040   265.04778     -105.47437     -104.27527      22.893305      27000          0.069846875  
     99050   253.81876     -105.39429     -104.24598     -87.238967      27000          0.070362736  
     99060   258.47338     -105.38185     -104.21249     -51.793435      27000          0.05733917   
     99070   302.41345     -105.54373     -104.17558     -96.602211      27000          0.071802839  
     99080   327.14786     -105.61083     -104.13078     -85.820227      27000          0.076088322  
     99090   319.3531      -105.52478     -104.07999     -9.9233723      27000          0.058018689  
     99100   292.08111     -105.35681     -104.0354      -176.88292      27000          0.070831752  
     99110   265.58411     -105.19688     -103.99535      102.68847      27000          0.084021072  
     99120   277.54244     -105.20626     -103.95063     -117.7142       27000          0.061581985  
     99130   332.23118     -105.41374     -103.91069      19.466178      27000          0.071586141  
     99140   334.68609     -105.38189     -103.86773     -17.072462      27000          0.087911019  
     99150   371.09037     -105.50795     -103.82909     -8.5502707      27000          0.063780029  
     99160   358.86685     -105.42056     -103.797        183.30663      27000          0.069297239  
     99170   344.61539     -105.3302      -103.77112     -12.576071      27000          0.077098069  
     99180   369.23573     -105.42243     -103.75197      259.52865      27000          0.062071648  
     99190   333.28436     -105.25027     -103.74245      26.52016       27000          0.072757724  
     99200   333.86024     -105.25018     -103.73976      280.67997      27000          0.058663886  
     99210   280.89279     -105.0094      -103.73861      163.16442      27000          0.064980186  
     99220   296.03595     -105.07919     -103.73989      309.75711      27000          0.06979695   
     99230   270.66851     -104.96793     -103.7434       235.64292      27000          0.071326106  
     99240   314.91509     -105.17373     -103.74902      252.2071       27000          0.099264321  
     99250   387.54258     -105.50977     -103.75649      179.48857      27000          0.070728211  
     99260   397.67808     -105.56776     -103.76863      113.58403      27000          0.069316047  
     99270   360.15295     -105.41613     -103.78677      37.359054      27000          0.075909897  
     99280   348.52272     -105.38548     -103.80872      125.99391      27000          0.055759413  
     99290   312.74078     -105.25016     -103.83529     -15.520206      27000          0.071006898  
     99300   301.82466     -105.23339     -103.8679       53.333452      27000          0.08387674   
     99310   339.72054     -105.44549     -103.90856     -32.337499      27000          0.07602378   
     99320   340.12519     -105.48758     -103.94882     -54.032479      27000          0.05305997   
     99330   295.26542     -105.32421     -103.9884      -31.374123      27000          0.063035203  
     99340   272.31149     -105.25277     -104.0208      -95.617801      27000          0.065173642  
     99350   232.58642     -105.10043     -104.04819     -90.745115      27000          0.079241426  
     99360   233.1158      -105.13057     -104.07593     -162.95076      27000          0.076002098  
     99370   245.51564     -105.21191     -104.10117     -196.89431      27000          0.080995201  
     99380   292.08266     -105.44229     -104.12088     -212.24346      27000          0.07710298   
     99390   317.36489     -105.57251     -104.13671     -290.7083       27000          0.082436258  
     99400   253.49698     -105.29767     -104.15082     -250.8143       27000          0.068940116  
     99410   233.50071     -105.21604     -104.15966     -248.62801      27000          0.086133561  
     99420   239.98829     -105.25211     -104.16638     -222.95523      27000          0.087028322  
     99430   269.57781     -105.39438     -104.17478     -243.92866      27000          0.087225435  
     99440   276.55755     -105.43238     -104.18121     -234.64315      27000          0.067908564  
     99450   285.05523     -105.47379     -104.18417     -93.179282      27000          0.074859549  
     99460   274.33245     -105.42434     -104.18324     -309.31753      27000          0.067814686  
     99470   267.17091     -105.39079     -104.18208     -43.653155      27000          0.083562956  
     99480   277.1802      -105.43149     -104.1775      -103.73393      27000          0.084398904  
     99490   287.03353     -105.46511     -104.16654     -104.45883      27000          0.081887153  
     99500   276.41409     -105.39859     -104.14806      88.328229      27000          0.082838484  
     99510   320.80893     -105.57423     -104.12286     -72.869913      27000          0.079610346  
     99520   282.92263     -105.36332     -104.08335      208.85382      27000          0.086243219  
     99530   303.46149     -105.40603     -104.03314      127.17527      27000          0.074905749  
     99540   313.86708     -105.39563     -103.97566      184.75226      27000          0.071375124  
     99550   325.85579     -105.38079     -103.90658      201.75097      27000          0.076646976  
     99560   328.78378     -105.32402     -103.83657      329.3075       27000          0.069732734  
     99570   360.98833     -105.39891     -103.76576      219.92749      27000          0.079565341  
     99580   388.33286     -105.4589      -103.70204      297.23775      27000          0.067859251  
     99590   352.24355     -105.23795     -103.64436      341.21044      27000          0.091426919  
     99600   369.46969     -105.2656      -103.59408      260.36184      27000          0.066481373  
     99610   407.98558     -105.39973     -103.55396      207.69291      27000          0.074955637  
     99620   407.29923     -105.37169     -103.52902      339.60763      27000          0.089781946  
     99630   352.04177     -105.10751     -103.51483      169.06351      27000          0.085896937  
     99640   388.32605     -105.26745     -103.51063      250.32616      27000          0.077464642  
     99650   462.34305     -105.60851     -103.51682      125.83694      27000          0.082876003  
     99660   388.68377     -105.29683     -103.53838     -57.257878      27000          0.070813565  
     99670   367.9999      -105.2356      -103.57073      110.53564      27000          0.062189233  
     99680   362.81737     -105.2542      -103.61277     -91.282074      27000          0.092753237  
     99690   341.17127     -105.19752     -103.65403     -46.015963      27000          0.070947071  
     99700   308.3201      -105.09198     -103.69711     -77.141848      27000          0.096077865  
     99710   325.75506     -105.21801     -103.74426     -177.86922      27000          0.081145694  
     99720   341.83864     -105.33875     -103.79223     -113.06899      27000          0.092824369  
     99730   300.44103     -105.19083     -103.8316      -316.39316      27000          0.090924632  
     99740   295.33089     -105.20654     -103.87043     -145.88052      27000          0.081216618  
     99750   285.20261     -105.1983      -103.90802     -362.70051      27000          0.10464131   
     99760   282.76725     -105.2208      -103.94153     -193.74297      27000          0.079181725  
     99770   296.96327     -105.31583     -103.97234     -309.41694      27000          0.075945493  
     99780   301.53335     -105.36314     -103.99897     -236.35777      27000          0.091938869  
     99790   275.15469     -105.26638     -104.02155     -214.55646      27000          0.079649007  
     99800   252.48025     -105.18044     -104.03819     -239.29176      27000          0.078558401  
     99810   244.99587     -105.1578      -104.04941     -110.17247      27000          0.088780384  
     99820   254.37302     -105.20529     -104.05448     -264.36681      27000          0.086672057  
     99830   277.17539     -105.31093     -104.05696     -67.624058      27000          0.086111463  
     99840   241.91588     -105.15175     -104.0573      -118.32451      27000          0.084605378  
     99850   257.35121     -105.22224     -104.05796     -28.881165      27000          0.074988485  
     99860   310.95635     -105.4608      -104.054       -151.74487      27000          0.081294901  
     99870   355.86835     -105.6607      -104.05071     -68.50922       27000          0.10088346   
     99880   313.5841      -105.469       -104.05031     -0.10551226     27000          0.074109141  
     99890   341.00758     -105.59666     -104.05391     -14.900657      27000          0.098930923  
     99900   348.29155     -105.63481     -104.0591       62.198931      27000          0.070760149  
     99910   296.80443     -105.4082      -104.06542      95.677709      27000          0.059840325  
     99920   283.40204     -105.35329     -104.07115      141.59297      27000          0.10978545   
     99930   301.81441     -105.44382     -104.07838      178.52033      27000          0.094679302  
     99940   309.76035     -105.48555     -104.08416      170.54513      27000          0.088725307  
     99950   257.90424     -105.25694     -104.09015      195.14056      27000          0.11319139   
     99960   281.05265     -105.36895     -104.09744      258.04643      27000          0.093416132  
     99970   321.24206     -105.55965     -104.10632      269.33499      27000          0.1052991    
     99980   313.69108     -105.53565     -104.11648      84.374263      27000          0.10189214   
     99990   304.37916     -105.5076      -104.13056      255.15829      27000          0.075159845  
    100000   336.06278     -105.67002     -104.14964      97.851735      27000          0.090147735  
    100009   300.60056     -105.52833     -104.16838      24.135352      27000          0.075756426  
Loop time of 32676.2 on 15 procs for 100000 steps with 36 atoms

Performance: 0.264 ns/day, 90.767 hours/ns, 3.060 timesteps/s, 110.172 atom-step/s
339.0% CPU use with 1 MPI tasks x 15 OpenMP threads

MPI task timing breakdown:
Section |  min time  |  avg time  |  max time  |%varavg| %total
---------------------------------------------------------------
Pair    | 19124      | 19124      | 19124      |   0.0 | 58.53
Neigh   | 0.023684   | 0.023684   | 0.023684   |   0.0 |  0.00
Comm    | 0.081393   | 0.081393   | 0.081393   |   0.0 |  0.00
Output  | 13551      | 13551      | 13551      |   0.0 | 41.47
Modify  | 0.52385    | 0.52385    | 0.52385    |   0.0 |  0.00
Other   |            | 0.2007     |            |       |  0.00

Nlocal:             36 ave          36 max          36 min
Histogram: 1 0 0 0 0 0 0 0 0 0
Nghost:              0 ave           0 max           0 min
Histogram: 1 0 0 0 0 0 0 0 0 0
Neighs:              0 ave           0 max           0 min
Histogram: 1 0 0 0 0 0 0 0 0 0
FullNghs:          882 ave         882 max         882 min
Histogram: 1 0 0 0 0 0 0 0 0 0

Total # of neighbors = 882
Ave neighs/atom = 24.5
Neighbor list builds = 950
Dangerous builds = 0

Total wall time: 9:05:23
