18
Lattice="30.0 0.0 0.0 0.0 30.0 0.0 0.0 0.0 30.0" Properties=species:S:1:pos:R:3:momenta:R:3:forces:R:3:magmoms:R:1 target_atoms="0 1 2 4 6 8 10 12 15 17" energy=-47.36182288 stress="0.000168564181060855 -5.6542349216633884e-05 7.990404948992251e-06 -5.6542349216633884e-05 -3.160325730799729e-05 2.0334250030269823e-05 7.990404948992251e-06 2.0334250030269823e-05 0.00015273450930635376" dipole="_JSON [[0.0, 0.0, 0.0]]" magmom=0.0 free_energy=-47.36182288 pbc="T T T"
Au      -0.28092722      -0.93442472      -1.40341207       1.80468755      -1.66977387       0.75819191       0.22545048      -0.53114604      -0.53238852       0.00000000
Au      -0.60702256       1.40313073       0.19918291      -0.42963645      -0.60755653      -2.57691478      -0.38189154       1.25032201      -1.31383003       0.00000000
Au       1.78891336       0.15372639       0.41434406       3.01046437       2.27100130       0.75158437       0.52868508      -0.27738894       0.03590387       0.00000000
Au      -0.62244578      -0.87705515      -4.21300996       3.10051900      -2.38658292      -0.33815884       0.80659130      -0.20468973       0.54204007       0.00000000
Au      -1.56946161       1.16574997      -2.42579979      -4.43955337       2.42817681      -1.72073128       0.16228771       0.05360498       0.41653750       0.00000000
Au       1.92451858      -1.67469910      -3.66178533      -1.52337059       1.86961248       2.05825991      -0.26453201       0.14726050       0.44616143       0.00000000
Au       3.41795372      -0.99137698      -1.43466639      -1.76377865      -0.48207750       0.99387941      -0.27230773      -0.25928111      -0.63295853       0.00000000
Au       1.84610658      -2.83936554       1.42714874      -1.79414242      -0.54776663      -1.63573780      -0.19449630      -0.14066522      -0.64216264       0.00000000
Au       1.72988505      -1.19740346       3.56844528      -2.03761791       1.63417066      -0.30126755       0.14402172       0.11391227      -0.31162988       0.00000000
Au      -0.77177091      -3.22129010       0.36236148      -1.00558114      -0.04667235       0.08520882       1.47041184      -0.19149672      -0.87613409       0.00000000
Au      -1.38736484      -0.78611124       1.25191321      -0.32707595      -0.29143851       1.71595790      -0.41857361      -1.09109734       0.31345529       0.00000000
Au       0.24131652       0.89152256       2.61795442       4.52113200      -1.82246100       2.20884524       0.71491368      -0.17679370       0.71093077       0.00000000
Au       1.54417118      -3.22647137      -1.28126708       0.61861497      -0.55514227      -2.18460511      -0.70321329       0.46318744       0.67118544       0.00000000
H        3.65744420      -1.80605828      -3.05697985       0.17370144       0.20943223       0.00594133      -0.48826765       0.19942231       0.23707412       0.00000000
H        2.58364649      -2.67311019       2.95949197       0.03320886      -0.05531113      -0.04910147      -0.12895332       0.10647089       0.24865804       0.00000000
H        3.56590212      -0.13056131       0.02088749       0.03587096       0.07523503       0.29081779      -0.24839606       0.15609316       0.22642785       0.00000000
H       -1.96479522      -2.50777874       1.24834568      -0.15324873      -0.41710618      -0.00183043      -0.76531272       0.34643475       0.48361618       0.00000000
H        1.20825459       0.28881952       4.21207497       0.17580607       0.39426037      -0.06033943      -0.18641757       0.03585049      -0.02288685       0.00000000
18
Lattice="30.0 0.0 0.0 0.0 30.0 0.0 0.0 0.0 30.0" Properties=species:S:1:pos:R:3:momenta:R:3:forces:R:3:magmoms:R:1 target_atoms="4 1 0 12 2 6 17 15 8 10 14 13 3 16 11 7 5 9" energy=-47.36413171 stress="0.00017999212212696397 -5.8829650099959815e-05 6.923575001650655e-06 -5.8829650099959815e-05 -1.2212698491524514e-06 3.3514675787235157e-05 6.923575001650655e-06 3.3514675787235157e-05 0.00017197059701347004" dipole="_JSON [[0.0, 0.0, 0.0]]" magmom=0.0 free_energy=-47.36413171 pbc="T T T"
Au      -0.28002287      -0.93526241      -1.40304697       1.82281552      -1.68969151       0.70573497       0.22199512      -0.51416810      -0.54020971       0.00000000
Au      -0.60723678       1.40283383       0.19788134      -0.42905836      -0.58294090      -2.64406521      -0.37985308       1.21403165      -1.28939909       0.00000000
Au       1.79042547       0.15484959       0.41472463       3.05385713       2.23358546       0.77624455       0.56619913      -0.27767074       0.03666128       0.00000000
Au      -0.62090881      -0.87824103      -4.21317980       3.06313614      -2.36924722      -0.34328004       0.79656836      -0.19848260       0.55043644       0.00000000
Au      -1.57167347       1.16696273      -2.42665209      -4.43074088       2.43528990      -1.69725938       0.17111676       0.03689490       0.41588204       0.00000000
Au       1.92377259      -1.67378506      -3.66075108      -1.46554743       1.79653495       2.09108402      -0.24347859       0.15802899       0.44563529       0.00000000
Au       3.41708432      -0.99162712      -1.43417783      -1.71367207      -0.51775211       0.96915467      -0.22516794      -0.15150010      -0.47141929       0.00000000
Au       1.84519726      -2.83963795       1.42631911      -1.85346619      -0.54527698      -1.69200211      -0.18462488      -0.13245301      -0.61206952       0.00000000
Au       1.72885513      -1.19657732       3.56827899      -2.08797060       1.68327504      -0.36215132       0.15525387       0.21464069      -0.28081579       0.00000000
Au      -0.77222982      -3.22131736       0.36238758      -0.84013547      -0.06656118       0.02275771       1.39324920      -0.13768555      -0.81494314       0.00000000
Au      -1.38753571      -0.78626673       1.25277030      -0.36496664      -0.34394947       1.72346438      -0.44675923      -1.21330563       0.30538264       0.00000000
Au       0.24358882       0.89060457       2.61908988       4.59145595      -1.85653383       2.34568121       0.70695240      -0.16393516       0.71502374       0.00000000
Au       1.54446408      -3.22674318      -1.28235103       0.55699596      -0.53304782      -2.16305034      -0.70743746       0.47364633       0.67879472       0.00000000
H        3.67096432      -1.78196647      -3.05498736       0.09721122       0.28541850       0.03729715      -0.51135597       0.18307250       0.24802712       0.00000000
H        2.58938458      -2.67802544       2.95735240       0.07874555      -0.03930653       0.00677627      -0.17490711       0.14998874       0.25341246       0.00000000
H        3.56892355      -0.12187182       0.04993153       0.01933198       0.09850986       0.29729329      -0.32750594       0.05202462       0.04108163       0.00000000
H       -1.98540648      -2.54700762       1.25115610      -0.25769020      -0.37416295       0.05527096      -0.64303407       0.43546557       0.42349800       0.00000000
H        1.22453216       0.32742705       4.20312537       0.15969838       0.38585678      -0.12895077      -0.16721057      -0.12859310      -0.10497882       0.00000000
18
Lattice="30.0 0.0 0.0 0.0 30.0 0.0 0.0 0.0 30.0" Properties=species:S:1:pos:R:3:momenta:R:3:forces:R:3:magmoms:R:1 target_atoms="3 1 0 17 2 15 6 14 12 13 8 7 10 5 11 16 9" energy=-47.35120076 stress="0.00021394175620216365 -6.24149726701592e-05 -4.480498533560927e-06 -6.24149726701592e-05 6.273400740912872e-05 5.671380971383102e-05 -4.480498533560927e-06 5.671380971383102e-05 0.00021120883029177704" dipole="_JSON [[0.0, 0.0, 0.0]]" magmom=0.0 free_energy=-47.35120076 pbc="T T T"
Au      -0.27728039      -0.93796487      -1.40216018       1.84357802      -1.92256304       0.48770853       0.20393126      -0.46673348      -0.55601872       0.00000000
Au      -0.60793071       1.40218166       0.19372160      -0.49693662      -0.29134202      -2.92113177      -0.37011499       1.10309485      -1.21152652       0.00000000
Au       1.79509193       0.15812821       0.41592834       3.17134586       2.14486805       0.84210359       0.62543882      -0.26601793       0.04743945       0.00000000
Au      -0.61626948      -0.88173040      -4.21360661       3.13739634      -2.29814114      -0.22868037       0.76026741      -0.17859263       0.57111229       0.00000000
Au      -1.57823582       1.17056938      -2.42918685      -4.34025755       2.38480992      -1.68956851       0.19511553      -0.01077861       0.40873971       0.00000000
Au       1.92153650      -1.67104761      -3.65752710      -1.52787889       1.86996459       2.21606154      -0.31412961       0.18474344       0.41523963       0.00000000
Au       3.41457926      -0.99237292      -1.43278022      -1.62398433      -0.45605793       0.92289858      -0.17700642       0.11666939      -0.04063891       0.00000000
Au       1.84237983      -2.84042953       1.42364272      -1.91622111      -0.50912220      -1.88778224      -0.13521588      -0.09298955      -0.44356396       0.00000000
Au       1.72574259      -1.19401244       3.56767496      -2.04442029       1.76481281      -0.44039022       0.22619701       0.37225920      -0.26364056       0.00000000
Au      -0.77317964      -3.22147687       0.36226836      -0.44884130      -0.15195558      -0.16917043       0.84872928       0.11920028      -0.41527336       0.00000000
Au      -1.38814028      -0.78698247       1.25542710      -0.44842585      -0.61363705       1.82840235      -0.52147536      -1.44144515       0.29012643       0.00000000
Au       0.25058623       0.88772190       2.62285876       4.75844765      -1.98858726       2.68895551       0.66517119      -0.10039984       0.67760150       0.00000000
Au       1.54514054      -3.22745504      -1.28543087       0.34918425      -0.41371706      -1.95461870      -0.71974141       0.51173187       0.70599941       0.00000000
H        3.67166438      -1.70706568      -3.03088654      -0.09015670       0.21286131       0.12310203      -0.38264985       0.04613347       0.12896681       0.00000000
H        2.59495723      -2.67800009       2.97998177      -0.05875074       0.04155959       0.15050456      -0.30861875       0.19953358       0.14438228       0.00000000
H        3.56754543      -0.08679775       0.11972567      -0.03052987       0.12711375       0.15477100      -0.47189668      -0.13790656      -0.28537670       0.00000000
H       -2.07814748      -2.63742840       1.27618564      -0.34689908      -0.23781336       0.09964052       0.04098907       0.46765372       0.01100261       0.00000000
H        1.26541741       0.43751264       4.15204827       0.11335021       0.33694662      -0.22280597      -0.16499063      -0.42615605      -0.18457140       0.00000000
18
Lattice="30.0 0.0 0.0 0.0 30.0 0.0 0.0 0.0 30.0" Properties=species:S:1:pos:R:3:momenta:R:3:forces:R:3:magmoms:R:1 target_atoms="4 0 3 12 1 6 2 15 17 10 14 13 8 5 7 11 16 9" energy=-47.20074454 stress="0.00019870370461468666 -2.3724562889340097e-05 -3.0330676012320953e-05 -2.3724562889340097e-05 5.355245413402552e-05 3.359165231928468e-05 -3.0330676012320953e-05 3.359165231928468e-05 0.00017514162069091156" dipole="_JSON [[0.0, 0.0, 0.0]]" magmom=0.0 free_energy=-47.20074454 pbc="T T T"
Au      -0.27161086      -0.94433822      -1.40131595       1.95611481      -2.33653906       0.07810520       0.13932163      -0.37323249      -0.56707681       0.00000000
Au      -0.60977962       1.40207454       0.18415000      -0.72565361       0.19478002      -3.45037652      -0.33572616       0.89632670      -1.03865633       0.00000000
Au       1.80507342       0.16426418       0.41861598       3.46966923       1.96353305       0.96024940       0.41770171      -0.18708260       0.08962322       0.00000000
Au      -0.60636921      -0.88863031      -4.21409668       3.48994518      -2.32696682      -0.10373142       0.67152337      -0.12642058       0.60376396       0.00000000
Au      -1.59093137       1.17751916      -2.43416286      -4.14392843       2.26478638      -1.63044776       0.23348310      -0.09652301       0.38545346       0.00000000
Au       1.91637836      -1.66507992      -3.65071891      -1.97307175       2.12989666       2.30174395      -0.63698540       0.15148711       0.29662097       0.00000000
Au       3.40953645      -0.99354922      -1.42997993      -1.77854747      -0.30066277       1.01939076      -0.29411600       0.52051535       0.83744069       0.00000000
Au       1.83658044      -2.84178028       1.41746841      -1.95612226      -0.38289048      -2.23319767      -0.20584173       0.00093468      -0.34146990       0.00000000
Au       1.71998185      -1.18831321       3.56598879      -1.81833712       2.05407327      -0.70316578       0.00176432       0.78002474      -0.17287570       0.00000000
Au      -0.77408218      -3.22192538       0.36178169      -0.27931729      -0.16364395      -0.09901399       0.10903769       0.33240698       0.07632177       0.00000000
Au      -1.38992395      -0.78987150       1.26103628      -0.76107157      -1.31029382       1.92523655      -0.63859573      -1.53786506       0.27009800       0.00000000
Au       0.26542540       0.88142949       2.63182261       5.15279312      -2.22716582       3.26655003       0.33361668       0.12343807       0.21601040       0.00000000
Au       1.54568211      -3.22821733      -1.29075186       0.04278991      -0.08023097      -1.63006013      -0.69583130       0.54846227       0.74781444       0.00000000
H        3.59644458      -1.63055868      -2.94224618      -0.10869199      -0.00120376       0.10962653       0.18571109      -0.36136247      -0.62903927       0.00000000
H        2.46733025      -2.61024108       3.11308543      -0.35089251       0.13582776       0.28000051       0.06181889      -0.49469875      -0.13510737       0.00000000
H        3.52598970      -0.01444489       0.17324057      -0.07049298       0.11815901       0.03944505      -0.32015186      -0.23642855      -0.37407096       0.00000000
H       -2.23575367      -2.67550679       1.32704222      -0.08753067       0.10875305       0.02649910       0.99368706       0.48099128      -0.51805416       0.00000000
H        1.28829158       0.56125988       4.01985489      -0.05765460       0.15978826      -0.15685380      -0.02041738      -0.42097368       0.25320359       0.00000000
18
Lattice="30.0 0.0 0.0 0.0 30.0 0.0 0.0 0.0 30.0" Properties=species:S:1:pos:R:3:momenta:R:3:forces:R:3:magmoms:R:1 target_atoms="4 3 16 0 14 12 17 15 1 13 10 8 2 11 7 5 6 9" energy=-47.50001042 stress="0.00010008067644872728 -3.798629889481908e-05 5.447695270726048e-06 -3.798629889481908e-05 -2.153152751834238e-05 4.618792275414034e-05 5.447695270726048e-06 4.618792275414034e-05 0.0002493259949084385" dipole="_JSON [[0.0, 0.0, 0.0]]" magmom=0.0 free_energy=-47.50001042 pbc="T T T"
Au      -0.26163431      -0.95686276      -1.40226076       1.98408681      -2.70905233      -0.39936990       0.00727574      -0.22350331      -0.57710054       0.00000000
Au      -0.61390640       1.40472358       0.16472475      -0.92544518       0.79470311      -4.28390860      -0.18500999       0.70504735      -0.73607678       0.00000000
Au       1.82235235       0.17357962       0.42385649       3.32944353       1.79714571       1.16422824      -0.07457857      -0.06585834       0.14971370       0.00000000
Au      -0.58755184      -0.90063579      -4.21351618       4.05743739      -2.44530703       0.35180382       0.50388703      -0.07033230       0.55953063       0.00000000
Au      -1.61047158       1.18876214      -2.44166349      -3.67405379       2.24034546      -1.36175178       0.33465307      -0.20749935       0.48805437       0.00000000
Au       1.90465549      -1.65390108      -3.63864326      -2.66683785       2.27466122       2.52924411      -0.48489231       0.08562029       0.27437921       0.00000000
Au       3.39993264      -0.99381329      -1.42290770      -2.02727988       0.05983579       1.61061981      -0.22809829      -0.02765125      -0.25677864       0.00000000
Au       1.82620658      -2.84397323       1.40539520      -2.24592431      -0.56073785      -2.61433792      -0.22570073      -0.00937378      -0.24420029       0.00000000
Au       1.71056817      -1.17563111       3.56246108      -1.97930129       2.99755451      -0.65196299      -0.00755790       0.35868298      -0.02152204       0.00000000
Au      -0.77424608      -3.22254866       0.36122578       0.48881981      -0.09518927      -0.31037088       0.99415593       0.01913266      -0.59021189       0.00000000
Au      -1.39484402      -0.79987966       1.27121180      -1.02989554      -2.50171757       2.12601913      -0.03779891      -0.09041296       0.21078579       0.00000000
Au       0.29157803       0.87091849       2.64777564       5.31850060      -1.97445401       3.08410761       0.20135959       0.31579350      -0.07247831       0.00000000
Au       1.54425092      -3.22702355      -1.29712189      -0.59844618       0.51978366      -0.89538543      -0.60970986       0.43011649       0.72473096       0.00000000
H        3.53537720      -1.81704626      -3.10557376      -0.11248990      -0.19792180      -0.22386903       0.07939833       0.15295851       0.39555223       0.00000000
H        2.18252807      -2.75236228       3.17729042      -0.22420661      -0.36292126      -0.19357006       0.13017105      -0.26527586      -0.14718603       0.00000000
H        3.49534791       0.00425578       0.10368536       0.08334141      -0.07864753      -0.19784469       0.12936297      -0.22605243      -0.29646456       0.00000000
H       -2.02486486      -2.35283850       1.26309554       0.19867851       0.49120193       0.00595085      -0.51903127      -0.47353540       0.16755331       0.00000000
H        1.27235716       0.52256961       4.11571855       0.02357245      -0.24928274       0.26039773      -0.00788589      -0.40785680      -0.02828112       0.00000000
18
Lattice="30.0 0.0 0.0 0.0 30.0 0.0 0.0 0.0 30.0" Properties=species:S:1:pos:R:3:momenta:R:3:forces:R:3:magmoms:R:1 target_atoms="3 0 16 14 1 15 12 13 10 6 17 5 2 8 9 7 11" energy=-47.3525065 stress="0.0001497960505004518 -2.9249796427936994e-05 -3.880985978247025e-05 -2.9249796427936994e-05 2.350561699071324e-05 -4.763532247892354e-06 -3.880985978247025e-05 -4.763532247892354e-06 0.00014953741484529344" dipole="_JSON [[0.0, 0.0, 0.0]]" magmom=0.0 free_energy=-47.3525065 pbc="T T T"
Au      -0.25134041      -0.97125761      -1.40539150       2.16316553      -3.08634563      -0.83885342      -0.06408526      -0.09824384      -0.50580419       0.00000000
Au      -0.61933972       1.41041287       0.14152659      -1.24925690       1.50162901      -5.01321787      -0.05216041       0.42417452      -0.47947626       0.00000000
Au       1.83893847       0.18204320       0.42995885       3.36983813       1.56249681       1.26240041      -0.01184908      -0.10784129       0.15746975       0.00000000
Au      -0.56644920      -0.91276086      -4.21059428       4.36316707      -2.39753754       0.80774473       0.28648918       0.02836936       0.47524503       0.00000000
Au      -1.62764047       1.19961816      -2.44742390      -3.20954799       2.11099645      -0.96010146       0.42008423      -0.33134170       0.56156899       0.00000000
Au       1.88966067      -1.64263806      -3.62572918      -3.30157306       2.22104878       2.64845101      -0.18146554       0.00690499       0.27079614       0.00000000
Au       3.38930169      -0.99416555      -1.41597843      -2.26887836      -0.29980435       1.07837142      -0.35545609      -0.72937444      -1.33148549       0.00000000
Au       1.81471905      -2.84679402       1.39109586      -2.37954367      -0.51281396      -3.22406372      -0.26785330      -0.01630465      -0.67848075       0.00000000
Au       1.70039351      -1.16104138       3.55897618      -2.06277924       2.54500676      -0.82847830       0.33809527      -1.38875909      -0.31580055       0.00000000
Au      -0.76993817      -3.22321140       0.35801455       1.12045900      -0.15371915      -0.95790428       0.39994891       0.31176324      -0.29067323       0.00000000
Au      -1.39881657      -0.81125124       1.28229163      -0.62873634      -2.18892205       2.32940248      -0.38450661      -0.70987092       0.24439794       0.00000000
Au       0.31877367       0.86158319       2.66319107       5.58908381      -1.72821503       3.08408064      -0.05506109       0.33378204      -0.50680748       0.00000000
Au       1.53984098      -3.22327017      -1.29961913      -1.15001807       1.00936717      -0.14832983      -0.71475272       0.36282656       0.60527051       0.00000000
H        3.52649239      -1.84522057      -3.03944885       0.07080089       0.12012109       0.31839913      -0.02416086       0.06962083       0.10721570       0.00000000
H        2.03708381      -2.99849124       3.00499307      -0.05535934      -0.04165922       0.01028841       0.17512701       0.45668340       0.62041350       0.00000000
H        3.59862815      -0.10496066      -0.10739331       0.09744949      -0.02696777      -0.07038489       0.09561453       0.71022372       1.14493231       0.00000000
H       -2.21520946      -2.34256619       1.40907550      -0.42569920      -0.39128573       0.24699184       0.52206230       0.13257372      -0.27910213       0.00000000
H        1.27662126       0.20165745       4.32981594      -0.04257175      -0.24339564       0.25520371      -0.12607046       0.54481353       0.20032021       0.00000000
18
Lattice="30.0 0.0 0.0 0.0 30.0 0.0 0.0 0.0 30.0" Properties=species:S:1:pos:R:3:momenta:R:3:forces:R:3:magmoms:R:1 target_atoms="4 14 16 3 15 0 17 5 6 1 9 13 10 7 2 8 12 11" energy=-47.21970161 stress="2.909558122045467e-05 3.795823706978911e-05 -8.251172703668003e-05 3.795823706978911e-05 6.783843216094944e-05 4.086455834520189e-05 -8.251172703668003e-05 4.086455834520189e-05 0.00012032769514745376" dipole="_JSON [[0.0, 0.0, 0.0]]" magmom=0.0 free_energy=-47.21970161 pbc="T T T"
Au      -0.22474450      -1.01359837      -1.42355636       2.10299920      -3.56523842      -2.01972495      -0.28896030       0.39056486      -0.32102047       0.00000000
Au      -0.63445761       1.43160561       0.07282331      -1.11035950       1.56589655      -5.71464681       0.15696954      -0.46158451       0.14960822       0.00000000
Au       1.88060717       0.20111485       0.44975301       2.86496579       1.63801663       2.05247596      -0.38741251       0.12094702       0.15108860       0.00000000
Au      -0.51557379      -0.93921838      -4.19490284       3.41209553      -1.71914070       1.57040140      -0.51540962       0.31798626       0.22696428       0.00000000
Au      -1.65904089       1.22048925      -2.45267982      -1.83716868       1.19062010       0.07845333       0.40817405      -0.42263135       0.42867051       0.00000000
Au       1.85128771      -1.61619621      -3.58727775      -2.63521282       1.89458323       3.53452462       0.01566144      -0.20243839       0.10817453       0.00000000
Au       3.35919871      -0.99605950      -1.40090570      -2.49178909      -0.14184550       1.32738667      -0.14339344      -0.40552264      -0.67566311       0.00000000
Au       1.78460805      -2.85110043       1.34710907      -2.22155880      -0.20560132      -3.58443800       0.25964084       0.22915184       0.37820492       0.00000000
Au       1.67653618      -1.14641471       3.55219720      -1.62154350       0.36666177      -0.30712543       0.99115894      -1.48523267      -0.26368187       0.00000000
Au      -0.74970440      -3.22112659       0.34197040       2.52491418       0.28341897      -1.85319923       0.14610509       0.05126045      -0.06237530       0.00000000
Au      -1.41226493      -0.84809150       1.31530988      -1.00185253      -2.81946776       2.74318590      -0.01038770      -0.33193901      -0.02156564       0.00000000
Au       0.38504401       0.84959764       2.69461997       4.69918335      -0.20894315       1.50039319      -1.15733732       1.18313665      -1.84155037       0.00000000
Au       1.51518343      -3.20449718      -1.29353342      -2.78841785       1.90199838       1.02950975      -0.62070854       0.07471113       0.39412949       0.00000000
H        3.34571559      -1.99625231      -2.88541009      -0.02224671       0.00808157       0.05580926       0.64535193      -0.11945618      -0.04298930       0.00000000
H        2.66496365      -2.62497828       2.82094891       0.24747346       0.04205830      -0.35021951      -0.51168739       0.40062137       0.22478233       0.00000000
H        3.61255263      -0.03976348      -0.09430057       0.31102536      -0.06018495      -0.31951791       0.08827066       0.46048522       0.69833482       0.00000000
H       -2.08118264      -2.67048156       1.44207116      -0.37494208      -0.30947060       0.23842587       0.53631015       0.55908560      -0.40757547       0.00000000
H        0.95989127       0.39092343       4.19480143      -0.05756530       0.13855690       0.01830587       0.38765418      -0.35914564       0.87646383       0.00000000
18
Lattice="30.0 0.0 0.0 0.0 30.0 0.0 0.0 0.0 30.0" Properties=species:S:1:pos:R:3:momenta:R:3:forces:R:3:magmoms:R:1 target_atoms="4 16 0 1 3 15 6 13 7 9 14 17 2 5 12 10 11 8" energy=-47.07879978 stress="-9.316904145403443e-05 0.0001293868586701075 5.5093264284386695e-05 0.0001293868586701075 -7.470732530114823e-05 -1.2279389016534576e-05 5.5093264284386695e-05 -1.2279389016534576e-05 0.00011392524246725046" dipole="_JSON [[0.0, 0.0, 0.0]]" magmom=0.0 free_energy=-47.07879978 pbc="T T T"
Au      -0.21146009      -1.03809764      -1.43848136       1.72745006      -3.43944445      -2.23817144      -0.40702090       0.64657961      -0.21456021       0.00000000
Au      -0.64027259       1.44005301       0.03439802      -0.50296800       0.76968393      -5.14955331       0.20500793      -0.62425064       0.39551259       0.00000000
Au       1.90087367       0.21305135       0.46435654       3.03579167       1.84741828       2.02024992      -0.18463941       0.19510782       0.17429643       0.00000000
Au      -0.49542062      -0.94943889      -4.18325604       2.23089067      -1.17875993       1.72964545      -0.89259125       0.40828804       0.05679099       0.00000000
Au      -1.66970411       1.22718945      -2.45040647      -1.22855221       0.73681112       0.54548461       0.41924889      -0.45457916       0.35829153       0.00000000
Au       1.83592173      -1.60431454      -3.56169364      -1.36383873       1.45498391       3.88621668       1.14569373      -0.45116964       0.36629483       0.00000000
Au       3.34129583      -0.99807416      -1.39328320      -2.50833260      -0.25059720       1.02833808       0.30064066      -0.02876673      -0.32182109       0.00000000
Au       1.77009192      -2.85054529       1.32279261      -1.98927789       0.43470794      -3.39126877       0.43631711       0.44415706       0.58474133       0.00000000
Au       1.66991062      -1.14868836       3.54904682      -0.35395002      -0.92780248      -0.45374811       0.78021138      -1.18722350       0.13779672       0.00000000
Au      -0.73305842      -3.21845825       0.32990550       2.58764729       0.34692374      -1.87789733       1.58055794      -0.82463556      -1.36645403       0.00000000
Au      -1.41988924      -0.86949000       1.33479782      -1.03924635      -3.08909150       2.78653591       0.44329985       0.67691605      -0.08214694       0.00000000
Au       0.41229795       0.85253258       2.69794892       3.14188546       1.03312593      -0.32721947      -1.06681209       0.99670409      -1.25445400       0.00000000
Au       1.49303511      -3.19069421      -1.28521106      -3.52024009       1.96821014       1.32528238      -0.27917333      -0.20976552       0.11808392       0.00000000
H        3.52681942      -1.94689423      -2.88780853      -0.03996836       0.21072051       0.03585836      -0.29195478       0.21116341      -0.00486748       0.00000000
H        2.63055181      -2.28966041       2.80495066      -0.06356332       0.16879704       0.23584622       0.24519783      -0.91599024      -0.44243264       0.00000000
H        3.66049125       0.06120938      -0.06143945      -0.44168491      -0.07562062       0.07582198      -0.40076086      -0.06509730       0.07452473       0.00000000
H       -1.88594745      -2.61533496       1.20964114       0.17000416       0.33317132      -0.23379063      -1.64788186       0.58286636       1.10465701       0.00000000
H        1.16745099       0.13921150       4.41520705       0.15795318      -0.34323766       0.00236946      -0.38534084       0.59969585       0.31574630       0.00000000
18
Lattice="30.0 0.0 0.0 0.0 30.0 0.0 0.0 0.0 30.0" Properties=species:S:1:pos:R:3:momenta:R:3:forces:R:3:magmoms:R:1 target_atoms="3 1 14 15 13 0 6 17 5 8 11 2 12 7 10 16 9" energy=-47.07392943 stress="2.0631994981610957e-05 6.411363058631395e-05 -4.885448893950057e-05 6.411363058631395e-05 0.00012171638099588977 7.83250600282383e-05 -4.885448893950057e-05 7.83250600282383e-05 0.00013529370431817" dipole="_JSON [[0.0, 0.0, 0.0]]" magmom=0.0 free_energy=-47.07392943 pbc="T T T"
Au      -0.20183288      -1.05981026      -1.45483656       1.02664776      -2.73582466      -2.45428103      -0.59732396       0.79818926      -0.04088898       0.00000000
Au      -0.64142935       1.44151972       0.00185327       0.20249502      -0.39997864      -4.12459025       0.42642297      -0.76632976       0.59413667       0.00000000
Au       1.91651834       0.22766326       0.48031690       1.50150801       2.34781206       2.57504345      -0.08552910       0.17325957       0.17609208       0.00000000
Au      -0.48517046      -0.95530663      -4.17144717       0.64441941      -0.49395403       1.61575568      -1.10678389       0.43467122      -0.12233125       0.00000000