32
Lattice="30.0 0.0 0.0 0.0 30.0 0.0 0.0 0.0 30.0" Properties=species:S:1:pos:R:3:momenta:R:3:forces:R:3:magmoms:R:1 target_atoms="0 1 2 4 8 16 20 24 26 28" energy=-93.32639188 stress="0.00014632993451304768 9.292964213000206e-06 -4.329666224024832e-06 9.292964213000206e-06 0.00016499439984837908 -3.146689281661499e-05 -4.329666224024832e-06 -3.146689281661499e-05 0.00034491257881672866" dipole="_JSON [[0.0, 0.0, 0.0]]" magmom=0.0 free_energy=-93.32639188 pbc="T T T"
Au      15.23983776      18.53502629      16.78981931       0.06230575      -0.90220129      -1.02682114      -0.00985255      -0.98747323      -0.24175064       0.00000000
Au      17.48219805      17.24753813      14.71438999       1.54719861       5.23182366      -0.18876971       0.32374454       0.07022288       0.53403328       0.00000000
Au      19.22775403      19.85270380      15.08524056       1.35612347      -1.69047942       2.66559388      -0.55206247       0.32799428       0.39031802       0.00000000
Au      15.16446820      20.56867111      12.47355359      -0.83643755       1.22829635       1.57136724       0.32270647      -0.65163914       0.26033909       0.00000000
Au      14.96628855      15.86399395      15.64985618       1.82521436      -2.17199593       0.47070593       0.43661337       0.92345562      -0.17492744       0.00000000
Au      15.11478523      18.10864321      13.65699724       0.35389895       0.39873893      -0.86376869       0.45426018      -0.22743781      -0.07321641       0.00000000
Au      17.56140842      18.94154580      12.54606740       0.27934064      -1.12543652       1.37968954      -0.15014943       0.35283161       0.05090101       0.00000000
Au      18.74368025      17.72236491      17.19152779      -3.01740037       0.32488317      -0.51884672      -0.07695211      -0.54824312      -0.62768388       0.00000000
Au      13.46977612      19.81330805      14.91320849       3.36120239       1.57933974      -0.31485468      -0.18874198       0.55824675       0.47014367       0.00000000
Au      20.24239335      18.02898901      13.37036583       0.86869176      -3.30431019       2.94188653      -0.38977419      -0.51266486      -0.56296809       0.00000000
Au      15.07676090      21.11278834      16.73991828      -0.17270736      -3.39402791      -1.14989881       0.79779465       1.50596909       0.09632317       0.00000000
Au      17.42530734      22.06188947      15.70965660      -2.55011865      -0.84924256       0.67113279       0.34684099      -0.11295147      -0.77349922       0.00000000
Au      18.14648866      21.55536697      13.03736727       1.12232547      -2.72985822      -4.51676035      -0.00895078       0.38501918       0.20991973       0.00000000
Au      14.76120671      23.12608126      12.94676037      -2.12586901       0.15125027       0.31856224       0.15744154       1.14258162       1.05008970       0.00000000
Au      17.54167711      20.03986639      17.55854764       2.59290414       0.19554067      -2.45444132      -0.35708574       0.50228735      -0.18462228       0.00000000
Au      16.28313588      15.05808538      13.16627614       0.43583959      -1.68752014       0.02436191      -0.30043547       0.28861741       0.53062892       0.00000000
Au      18.59683741      16.05975594      12.25673316      -4.29084813       4.05216182       0.01598949       0.68590234       0.48800048      -0.04939059       0.00000000
Au      14.92917104      23.84595051      15.59395297      -1.05712391       3.41589354       0.94792591       0.43809406      -0.84304664       0.46708300       0.00000000
H       14.65041876      22.04515057      11.70183008      -0.00328165       0.10378594      -0.28306292      -0.14695241      -0.26915573      -0.66699854       0.00000000
H       14.76195316      16.88765394      17.09953722      -0.15717869       0.10547875      -0.31488158       0.00814279      -0.33606010      -0.19580773       0.00000000
H       13.34906685      18.65391723      13.68085970       0.02998203      -0.11703510       0.24445229      -0.05690693      -0.17612157      -0.17657088       0.00000000
H       18.64029534      16.44062580      16.01295609       0.11316583       0.13079514      -0.02113616      -0.18577519       0.20925631      -0.03597305       0.00000000
H       20.72738433      19.27735914      14.45146218      -0.03673683      -0.02619850       0.22059571       0.28779786       0.08547494       0.05654932       0.00000000
H       13.42341369      21.06779557      16.30040444      -0.01722258       0.24838011      -0.17524660      -0.38693741      -0.34446120      -0.34387598       0.00000000
H       18.23847127      20.56732681      11.58304748      -0.03797259       0.08197834      -0.40999812      -0.16225453      -0.08284010       0.62602420       0.00000000
H       18.33523954      22.91585434      14.32234815       0.08450365       0.11307680       0.08348193      -0.46229253      -0.85853577       0.07525971       0.00000000
H       18.84067719      18.93623379      18.38483106      -0.07598048       0.10964804       0.35284651       0.01691146       0.05761221       0.09526753       0.00000000
H       15.01662329      14.78687266      14.29474143       0.23609835      -0.00393105       0.14828738      -0.31286258      -0.34096844       0.11675628       0.00000000
H       20.23114265      16.80421862      12.07731816       0.25650119       0.27653846      -0.17136322      -0.28409165       0.02780834       0.26266234       0.00000000
H       14.87744477      24.64248216      13.94912108      -0.36206373       0.21729016       0.20631596      -0.12887218      -0.54678296       0.21975865       0.00000000
H       15.12250303      23.17211199      17.23685187       0.20276801       0.11818300       0.04980893      -0.18180505       0.14301022      -1.11958454       0.00000000
H       17.32426969      14.94869788      11.82136642       0.01287735      -0.08084607       0.09684584       0.06650494      -0.23000616      -0.28518836       0.00000000
32
Lattice="30.0 0.0 0.0 0.0 30.0 0.0 0.0 0.0 30.0" Properties=species:S:1:pos:R:3:momenta:R:3:forces:R:3:magmoms:R:1 target_atoms="1 8 20 2 4 28 0 26 24 16 31 7 15 25 9 18 12 17 27 22 21 29 23 19 5 6 13 30 3 14 11 10" energy=-93.28430792 stress="0.00015975646297484658 1.3251922244002328e-05 3.117259317831135e-06 1.3251922244002328e-05 0.00019111796790987102 -1.7301669266749546e-05 3.117259317831135e-06 -1.7301669266749546e-05 0.00036557627442319" dipole="_JSON [[0.0, 0.0, 0.0]]" magmom=0.0 free_energy=-93.28430792 pbc="T T T"
Au      15.23986744      18.53458025      16.78930411       0.06110791      -0.87896189      -1.04090525       0.02538005      -0.90871148      -0.25925361       0.00000000
Au      17.48297573      17.25014211      14.71430155       1.57135369       5.21293123      -0.16827136       0.31894792       0.08125277       0.52438481       0.00000000
Au      19.22841785      19.85187079      15.08658602       1.30661300      -1.64888538       2.73120855      -0.57273981       0.34910641       0.38752496       0.00000000
Au      15.16404762      20.56928087      12.47435380      -0.85540619       1.22264583       1.63380059       0.27420248      -0.51566444       0.18360392       0.00000000
Au      14.96721485      15.86293476      15.65008847       1.89147407      -2.07727592       0.45675582       0.44503363       0.92902432      -0.21226475       0.00000000
Au      15.11498078      18.10883071      13.65656655       0.43403035       0.35352146      -0.86343861       0.46901061      -0.23204066      -0.06665628       0.00000000
Au      17.56155728      18.94097913      12.54674594       0.32101943      -1.14573675       1.33228765      -0.13967965       0.38577980       0.00418009       0.00000000
Au      18.74216787      17.72252249      17.19125127      -3.04447436       0.31602485      -0.57832022      -0.05118578      -0.37313988      -0.42430244       0.00000000
Au      13.47145459      19.81411190      14.91306353       3.37100863       1.64922074      -0.26087849      -0.20091585       0.62692718       0.51515869       0.00000000
Au      20.24281695      18.02733234      13.37182810       0.83417057      -3.34227226       2.91641529      -0.36182599      -0.46685108      -0.56638099       0.00000000
Au      15.07668503      21.11110832      16.73934183      -0.13657079      -3.34299200      -1.16225633       0.75276052       1.53167301       0.07683345       0.00000000
Au      17.42403999      22.06147058      15.70996114      -2.52835120      -0.82953170       0.54686970       0.36791799      -0.09917545      -0.80652499       0.00000000
Au      18.14705066      21.55402199      13.03510171       1.13465606      -2.66296815      -4.58451599      -0.00568908       0.34003442       0.10815906       0.00000000
Au      14.76015773      23.12617549      12.94694713      -2.08288451       0.22452203       0.42161782       0.10658834       1.05198896       0.90444521       0.00000000
Au      17.54297228      20.03996391      17.55731554       2.60604947       0.19284043      -2.48077873      -0.33846124       0.47275910      -0.11563720       0.00000000
Au      16.28336436      15.05725800      13.16628808       0.48115749      -1.62839672       0.02403017      -0.28804882       0.29241501       0.56720325       0.00000000
Au      18.59470529      16.06177674      12.25673237      -4.25551004       4.05437873      -0.01961236       0.78186864       0.54822383      -0.06005857       0.00000000
Au      14.92865612      23.84764069      15.59444582      -1.00643502       3.36737156       1.02735439       0.43562524      -0.81028372       0.46483225       0.00000000
H       14.65029895      22.05415398      11.66967483       0.00635535       0.08105057      -0.36262699      -0.06772963      -0.23886550      -0.38133117       0.00000000
H       14.74674339      16.89730038      17.07102732      -0.16181259       0.09013989      -0.25981317      -0.02919409      -0.37112752      -0.07434897       0.00000000
H       13.34997872      18.64105956      13.70373323      -0.01614957      -0.14828890       0.21967298      -0.08079927      -0.21490137      -0.23877698       0.00000000
H       18.65074801      16.45463379      16.00983366       0.10305354       0.15452422      -0.04002167      -0.18128441       0.16594675      -0.03838974       0.00000000
H       20.72624186      19.27620664      14.47511997       0.01133129      -0.00029592       0.26553187       0.28950555       0.02562964       0.00898263       0.00000000
H       13.41796649      21.08839482      16.28207284      -0.08924201       0.17135419      -0.20094859      -0.31791520      -0.36675012      -0.33015138       0.00000000
H       18.23315350      20.57476102      11.54943022      -0.07569353       0.07115409      -0.25336300      -0.17731605      -0.04149252       0.80866113       0.00000000
H       18.34084971      22.92104145      14.33076581       0.02728374      -0.01359373       0.08836934      -0.48287135      -0.90225214       0.06419689       0.00000000
H       18.83314987      18.94760675      18.41871129      -0.08689896       0.11770461       0.32219292      -0.04504335      -0.07703589      -0.13419672       0.00000000
H       15.03369605      14.78214646      14.31057460       0.11358843      -0.09855351       0.17450595      -0.33498008      -0.40049282       0.06965729       0.00000000
H       20.25638341      16.83358434      12.06225206       0.25179862       0.32875848      -0.13168075      -0.41859238      -0.03246870       0.31165983       0.00000000
H       14.84322578      24.65981398      13.97131910      -0.33931228       0.13107348       0.25123184      -0.09601836      -0.64247886       0.15378354       0.00000000
H       15.14102805      23.18567326      17.23564408       0.17349059       0.15958278      -0.07577941      -0.19270162       0.11529609      -1.10950652       0.00000000
H       17.32375920      14.94080619      11.82961441      -0.02080117      -0.08104635       0.07136604       0.11615102      -0.22232511      -0.33548669       0.00000000
32
Lattice="30.0 0.0 0.0 0.0 30.0 0.0 0.0 0.0 30.0" Properties=species:S:1:pos:R:3:momenta:R:3:forces:R:3:magmoms:R:1 target_atoms="20 27 12 4 26 0 22 24 16 8 25 28 1 6 29 31 15 19 7 2 9 21 5 23 18 11 17 14 13 30 10 3" energy=-93.25864618 stress="0.00020826992209721805 2.2801655900932245e-05 1.0120101485380507e-05 2.2801655900932245e-05 0.00021714644657983017 2.318889161012029e-05 1.0120101485380507e-05 2.318889161012029e-05 0.00036561424152320275" dipole="_JSON [[0.0, 0.0, 0.0]]" magmom=0.0 free_energy=-93.25864618 pbc="T T T"
Au      15.23999421      18.53319390      16.78769889       0.11517506      -0.96786348      -1.10744664       0.09671459      -0.83652559      -0.26099868       0.00000000
Au      17.48542014      17.25798570      14.71419679       1.69408583       5.27894454       0.01892575       0.27128822       0.10800963       0.47567700       0.00000000
Au      19.23025370      19.84946730      15.09081997       1.15196543      -1.56747632       2.92375539      -0.57545748       0.39711551       0.36809570       0.00000000
Au      15.16273053      20.57101566      12.47674048      -0.91065032       1.10957484       1.53925750       0.14053983      -0.17703712      -0.05862256       0.00000000
Au      14.97013595      15.85999940      15.65067034       2.01411989      -1.85762329       0.30428646       0.44006111       0.82309558      -0.39032127       0.00000000
Au      15.11576591      18.10932639      13.65525180       0.61569248       0.30624193      -0.88944889       0.41082916      -0.23947664      -0.04826790       0.00000000
Au      17.56206759      18.93929360      12.54863712       0.35930169      -1.10634993       1.18757439      -0.15742488       0.38098111      -0.03911747       0.00000000
Au      18.73758367      17.72299698      17.19024751      -3.07790947       0.34681061      -0.73173641      -0.00304335       0.01233813       0.04357458       0.00000000
Au      13.47643900      19.81666214      14.91282309       3.28301184       1.76211314      -0.05367629      -0.28867269       0.65281719       0.46642780       0.00000000
Au      20.24398763      18.02225946      13.37605245       0.72782146      -3.42800263       2.73476860      -0.29046598      -0.19633232      -0.39611289       0.00000000
Au      15.07656898      21.10642257      16.73763958      -0.02543603      -2.91900707      -1.12066837       0.55362243       1.52932610      -0.04481192       0.00000000
Au      17.42030175      22.06019696      15.71058810      -2.47414946      -0.88377945       0.29315596       0.32921029      -0.15553124      -0.79955637       0.00000000
Au      18.14872354      21.55012226      13.02822882       1.09549107      -2.55486691      -4.61123477      -0.04993574       0.26739372       0.07556049       0.00000000
Au      14.75708912      23.12667697      12.94779553      -2.02572606       0.42469020       0.69017366      -0.04058101       0.63428056       0.35704703       0.00000000
Au      17.54685845      20.04029806      17.55354326       2.59489300       0.25171357      -2.54394524      -0.31475260       0.39519531       0.09380604       0.00000000
Au      16.28404441      15.05489152      13.16640477       0.42187058      -1.53955395       0.14111981      -0.38898127       0.22264586       0.75091450       0.00000000
Au      18.58844276      16.06793362      12.25667550      -4.11439325       4.17854526      -0.05853359       0.76959077       0.58828234      -0.05406074       0.00000000
Au      14.92728444      23.85260589      15.59608176      -0.83422266       3.28080017       1.13826837       0.37373091      -0.79110491       0.29362280       0.00000000
H       14.66166801      22.06739138      11.55747905       0.08167161       0.01370823      -0.36784633       0.12704414      -0.10551356       0.50284984       0.00000000
H       14.68623632      16.91175087      17.00026356      -0.26374293       0.00861581      -0.20515033      -0.08224344      -0.30278285       0.18119556       0.00000000
H       13.33634545      18.59280400      13.75055079      -0.07884667      -0.18482674       0.09862032      -0.01567901      -0.18585846      -0.24702837       0.00000000
H       18.67440209      16.50673947      15.99437263       0.06559039       0.18873019      -0.06135152      -0.14730149      -0.04038507      -0.08363842       0.00000000
H       20.73208675      19.27394328      14.55603828       0.02415880      -0.02117974       0.28462670       0.24701101      -0.14643249      -0.13205942       0.00000000
H       13.38228039      21.12103481      16.21960936      -0.12913500       0.05479620      -0.22363545      -0.02611563      -0.40910538      -0.25477032       0.00000000
H       18.20336689      20.59237551      11.52743827      -0.12385092       0.04634277       0.11092943      -0.13512375      -0.02446590       0.86423689       0.00000000
H       18.33928113      22.88443102      14.35547518      -0.03363913      -0.22042830       0.08110020      -0.42371539      -0.76342638       0.02445744       0.00000000
H       18.81202385      18.97165972      18.50417230      -0.07245419       0.03123400       0.21919296      -0.17357378      -0.28945990      -0.60634041       0.00000000
H       15.04977410      14.73263092      14.37050230       0.00987033      -0.23129914       0.22642618      -0.13253695      -0.38229198      -0.17013673       0.00000000
H       20.31906581      16.93572000      12.04661426       0.17003361       0.36128115       0.03107211      -0.56848732      -0.26313700       0.24382185       0.00000000
H       14.73499501      24.66144379      14.04843925      -0.39213123      -0.11058757       0.26246721      -0.01577535      -0.56214414      -0.22350599       0.00000000
H       15.17993996      23.23202984      17.17406456       0.08966754       0.13727304      -0.30920647      -0.14821842      -0.02024806      -0.61519468       0.00000000
H       17.32646208      14.90076129      11.83960998       0.04186673      -0.18857111      -0.00184066       0.21844307      -0.12022204      -0.31674340       0.00000000
32
Lattice="30.0 0.0 0.0 0.0 30.0 0.0 0.0 0.0 30.0" Properties=species:S:1:pos:R:3:momenta:R:3:forces:R:3:magmoms:R:1 target_atoms="26 20 31 28 27 8 18 22 16 4 2 19 14 7 0 1 24 29 25 21 15 13 3 9 23 5 12 10 30 17 6 11" energy=-93.03884047 stress="0.00022958515635831205 3.9657475446292576e-05 -4.033528461283611e-05 3.9657475446292576e-05 0.00010201506992305753 3.828317627639172e-05 -4.033528461283611e-05 3.828317627639172e-05 9.641578712019115e-05" dipole="_JSON [[0.0, 0.0, 0.0]]" magmom=0.0 free_energy=-93.03884047 pbc="T T T"
Au      15.24058499      18.52958415      16.78420187       0.26588579      -1.49273994      -1.20595225      -0.02867800      -1.28221510      -0.19782889       0.00000000
Au      17.49079484      17.27386357      14.71466889       1.90205944       5.33336093       0.26806451       0.09260712       0.08718077       0.33239828       0.00000000
Au      19.23319587      19.84506798      15.09979660       0.81333052      -1.37142282       3.04482618      -0.46029580       0.44797719       0.32446688       0.00000000
Au      15.16004128      20.57426152      12.48099007      -0.86895962       1.08223401       1.26824456       0.06138880       0.00387561      -0.27019586       0.00000000
Au      14.97658149      15.85495086      15.65107484       2.29393337      -1.56735611      -0.05734032       0.29937047       0.37702797      -0.68188207       0.00000000
Au      15.11789292      18.11006345      13.65253576       0.74815735       0.17780796      -0.91579357       0.05687658      -0.31507308      -0.02557446       0.00000000
Au      17.56310034      18.93628885      12.55221349       0.32593307      -0.92280769       1.22592359      -0.33371729       0.07094910       0.13100387       0.00000000
Au      18.72832999      17.72416932      17.18827114      -3.10758526       0.44181822      -0.58145582      -0.02580541       0.04005968       0.11783430       0.00000000
Au      13.48586171      19.82231728      14.91301339       2.97853619       1.92733683       0.11982343      -0.48968439      -0.01371022      -0.23229571       0.00000000
Au      20.24583082      18.01199684      13.38419515       0.49269105      -3.35240200       2.80914480      -0.30494942       0.59768778       0.54804016       0.00000000
Au      15.07680610      21.09888283      16.73433189       0.20015157      -2.14061126      -1.07996942       0.53958422       1.43543242      -0.15816058       0.00000000
Au      17.41290555      22.05717671      15.71091778      -2.56130601      -1.20392684      -0.01153513      -0.04735258      -0.51266875      -0.32003229       0.00000000
Au      18.15194445      21.54265145      13.01456731       1.05372972      -2.42779676      -4.45012453      -0.19749739       0.60303336       1.16643109       0.00000000
Au      14.75104916      23.12825903      12.95001666      -1.99805295       0.56984326       0.72578211      -0.17854204       0.18124131      -0.10883118       0.00000000
Au      17.55462274      20.04152326      17.54602176       2.58236799       0.57558595      -2.48063968      -0.52748661       0.39107086       0.21300617       0.00000000
Au      16.28478460      15.05049694      13.16756072       0.06277627      -1.41519284       0.63924332      -0.29135793      -0.06817886       0.75275728       0.00000000
Au      18.57680160      16.08089104      12.25638940      -3.71156084       4.44909749      -0.13745729       0.39655401       0.34703081      -0.05297473       0.00000000
Au      14.92506596      23.86205280      15.59940458      -0.69813848       3.07176639       1.00936725       0.16264982      -0.81072759      -0.55932443       0.00000000
H       14.73437915      22.06380737      11.45216458       0.16176126      -0.01280826       0.05868661       0.17302177      -0.02600988       1.10239575       0.00000000
H       14.48803001      16.88425981      16.92789588      -0.40404254      -0.04865076      -0.07743376       0.19653170       0.18608203       0.11198228       0.00000000
H       13.27265544      18.47048249      13.77956681      -0.07883150      -0.19611056       0.04626414       0.42717286       0.24282952       0.07379550       0.00000000
H       18.71158793      16.60726562      15.90310279       0.08013654       0.16302244      -0.24993893      -0.02879293      -0.33122380      -0.00248509       0.00000000
H       20.74775148      19.24113209      14.69180497       0.00415721      -0.09746201       0.18689725       0.15648914      -0.26810364      -0.26517159       0.00000000
H       13.35334267      21.12293402      16.04928777       0.03145197       0.01473016      -0.30844409       0.07537410      -0.14029951       0.09892899       0.00000000
H       18.11118694      20.59603492      11.71219797      -0.19117888      -0.08035194       0.38934905       0.09768944      -0.60803412      -0.93021941       0.00000000
H       18.31506810      22.67534875      14.38723790       0.03913314      -0.37933150       0.00679919       0.09678505       0.30011100      -0.07056684       0.00000000
H       18.73328152      18.93206384      18.51901307      -0.17475358      -0.17469397      -0.15323861      -0.02261772      -0.25947593      -0.47511433       0.00000000
H       15.06392250      14.56466360      14.46329386       0.09479045      -0.28394353       0.07139306       0.30893518       0.23873084      -0.31012032       0.00000000
H       20.29536792      17.06646533      12.08862321      -0.23060178       0.02724380       0.02993920      -0.30612177      -0.88623339      -0.67024062       0.00000000
H       14.49560670      24.53446852      14.13130553      -0.41267843      -0.24098730      -0.01583609      -0.08213801       0.20146996      -1.05576674       0.00000000
H       15.20457185      23.21022410      17.01124431       0.03633804      -0.30276271      -0.14248006       0.21023160      -0.44625156       1.18943458       0.00000000
H       17.42215070      14.80014571      11.81312554       0.27036895      -0.12248863      -0.03210868      -0.02622456       0.21641521       0.22431001       0.00000000
32
Lattice="30.0 0.0 0.0 0.0 30.0 0.0 0.0 0.0 30.0" Properties=species:S:1:pos:R:3:momenta:R:3:forces:R:3:magmoms:R:1 target_atoms="26 27 7 8 29 19 20 31 25 28 4 5 15 1 24 18 22 21 13 0 2 23 12 16 6 14 9 3 10 11 30 17" energy=-93.0214009 stress="0.0001984973728060032 2.1901680217052887e-05 -5.606702708915224e-05 2.1901680217052887e-05 -6.361939044467176e-06 -2.486555444811544e-05 -5.606702708915224e-05 -2.486555444811544e-05 0.00011399809960327691" dipole="_JSON [[0.0, 0.0, 0.0]]" magmom=0.0 free_energy=-93.0214009 pbc="T T T"
Au      15.24123651      18.52505365      16.78105495       0.24692166      -2.15363262      -1.32530285      -0.16114413      -1.49219247      -0.19767937       0.00000000
Au      17.49552733      17.28725810      14.71549096       1.86946086       5.40866383       0.36920474      -0.06466243       0.04924336       0.19507611       0.00000000
Au      19.23481303      19.84185790      15.10743700       0.47519266      -1.20730379       3.07183311      -0.26884974       0.38115230       0.21475766       0.00000000
Au      15.15795312      20.57684929      12.48398021      -0.78058922       0.95974217       1.16273900       0.19812919      -0.40930187       0.03807632       0.00000000
Au      14.98243538      15.85128432      15.65052547       2.38246623      -1.37287704      -0.37849347       0.09283085       0.34653841      -0.59310411       0.00000000
Au      15.11984837      18.11035161      13.65023372       0.82782402       0.04542428      -0.92612198      -0.01414135      -0.43717617       0.00235647       0.00000000
Au      17.56372491      18.93396852      12.55544375       0.17567902      -0.98347425       1.38522544      -0.46168674      -0.15567337       0.17951563       0.00000000
Au      18.72062656      17.72522620      17.18674874      -3.06458991       0.34817712      -0.70856634      -0.02554830      -0.73594426      -0.76056420       0.00000000
Au      13.49289206      19.82697017      14.91312761       2.65177162       1.76860605      -0.05327790      -0.48398093      -0.56124569      -0.67559726       0.00000000
Au      20.24688231      18.00402455      13.39146112       0.35992832      -3.07280723       2.97710457      -0.24874921       0.30336228       0.16200555       0.00000000
Au      15.07756401      21.09431515      16.73158915       0.42121853      -1.54775835      -1.11644766       0.67610883       1.46614401      -0.02761270       0.00000000
Au      17.40642438      22.05371547      15.71068519      -2.64524639      -1.57509693      -0.17850461      -0.00619137      -0.47997559      -0.32266243       0.00000000
Au      18.15435189      21.53679740      13.00421090       0.87821925      -2.29694181      -3.85160442      -0.18114182       0.44395058       1.10929174       0.00000000
Au      14.74595032      23.12975052      12.95181215      -2.09195018       0.63420610       0.75030126      -0.22040653       0.33227783       0.30124632       0.00000000
Au      17.56074926      20.04322085      17.53988531       2.31299712       0.78710677      -2.45550697      -0.79718630       0.49076616       0.03493261       0.00000000
Au      16.28485182      15.04686481      13.16970107       0.02586724      -1.49687501       1.07452150      -0.11518128      -0.18134337       0.75176056       0.00000000
Au      18.56770536      16.09220056      12.25604849      -3.60466230       4.60494529      -0.13836844       0.40633051       0.24721530      -0.12600814       0.00000000
Au      14.92334837      23.86927648      15.60164263      -0.68534306       2.67161782       0.82397575       0.10164846      -1.11373187      -0.07003399       0.00000000
H       14.82532541      22.06684344      11.58032369       0.18518031       0.02898014       0.36069617       0.03384947      -0.03366486       0.13825164       0.00000000
H       14.31287503      16.88616523      16.88023329      -0.28478520       0.06139941      -0.14271866       0.57018132       0.15624077      -0.18682808       0.00000000
H       13.28015385      18.39266911      13.81792521       0.11265259      -0.12093308       0.11973482       0.48283052       0.37519494       0.07602180       0.00000000
H       18.74172752      16.65568744      15.79940457       0.04843632       0.03377819      -0.14244850       0.07437806      -0.36145654       0.27425851       0.00000000
H       20.76515396      19.16909592      14.75701192       0.05539015      -0.18911175       0.07567894      -0.01861369      -0.25507682      -0.36979736       0.00000000
H       13.38526431      21.12676611      15.93383319       0.08829086       0.03582233      -0.15007228      -0.10589605       0.32820180       0.45456631       0.00000000
H       18.06160415      20.49111719      11.76127879      -0.00049860      -0.31208754      -0.21691500       0.18790024      -0.41003052      -1.16745451       0.00000000
H       18.38323829      22.56361747      14.38310616       0.25244129      -0.03983667      -0.01391708       0.14603377       0.60207614       0.10586756       0.00000000
H       18.66218568      18.82226088      18.42594543      -0.09145691      -0.24651891      -0.14267524       0.24952258       0.25292105       0.59345618       0.00000000
H       15.14117675      14.47231731      14.46766190       0.21550411      -0.06846245      -0.04140367       0.27066983       0.56433378      -0.17468292       0.00000000
H       20.15769636      16.99489059      12.03788811      -0.30892470      -0.25859206      -0.19388079      -0.10122425      -0.27251739      -0.08379027       0.00000000
H       14.31058643      24.45181530      14.03076958      -0.32035959      -0.08756113      -0.30102075       0.20966606       0.17033987      -0.02277160       0.00000000